
     Program PWSCF v.7.2 starts on 16May2024 at  9:56: 9 

     This program is part of the open-source Quantum ESPRESSO suite
     for quantum simulation of materials; please cite
         "P. Giannozzi et al., J. Phys.:Condens. Matter 21 395502 (2009);
         "P. Giannozzi et al., J. Phys.:Condens. Matter 29 465901 (2017);
         "P. Giannozzi et al., J. Chem. Phys. 152 154105 (2020);
          URL http://www.quantum-espresso.org", 
     in publications or presentations arising from this work. More details at
     http://www.quantum-espresso.org/quote

     Serial version
     9023 MiB available memory on the printing compute node when the environment starts

     Waiting for input...
     Reading input from standard input

     Current dimensions of program PWSCF are:
     Max number of different atomic species (ntypx) = 10
     Max number of k-points (npk) =  40000
     Max angular momentum in pseudopotentials (lmaxx) =  4


     G-vector sticks info
     --------------------
     sticks:   dense  smooth     PW     G-vecs:    dense   smooth      PW
     Sum         757     757    235                13731    13731    2277

     Using Slab Decomposition



     bravais-lattice index     =            2
     lattice parameter (alat)  =      10.4684  a.u.
     unit-cell volume          =     286.7982 (a.u.)^3
     number of atoms/cell      =            2
     number of atomic types    =            1
     number of electrons       =         8.00
     number of Kohn-Sham states=            4
     kinetic-energy cutoff     =      50.0000  Ry
     charge density cutoff     =     200.0000  Ry
     scf convergence threshold =      1.0E-08
     mixing beta               =       0.7000
     number of iterations used =            8  plain     mixing
     Exchange-correlation=  SLA  PZ   NOGX NOGC
                           (   1   1   0   0   0   0   0)

     celldm(1)=  10.468364  celldm(2)=   0.000000  celldm(3)=   0.000000
     celldm(4)=   0.000000  celldm(5)=   0.000000  celldm(6)=   0.000000

     crystal axes: (cart. coord. in units of alat)
               a(1) = (  -0.500000   0.000000   0.500000 )  
               a(2) = (   0.000000   0.500000   0.500000 )  
               a(3) = (  -0.500000   0.500000   0.000000 )  

     reciprocal axes: (cart. coord. in units 2 pi/alat)
               b(1) = ( -1.000000 -1.000000  1.000000 )  
               b(2) = (  1.000000  1.000000  1.000000 )  
               b(3) = ( -1.000000  1.000000 -1.000000 )  


     PseudoPot. # 1 for Si read from file:
     /home/paolo/project_labqsm/pseudopotentials/Si.pz-vbc.UPF
     MD5 check sum: dc3b11d017da532b29132e08c0a6883c
     Pseudo is Norm-conserving, Zval =  4.0
     Generated by new atomic code, or converted to UPF format
     Using radial grid of  431 points,  2 beta functions with: 
                l(1) =   0
                l(2) =   1

     atomic species   valence    mass     pseudopotential
        Si             4.00    28.08500     Si( 1.00)

     48 Sym. Ops., with inversion, found (24 have fractional translation)



   Cartesian axes

     site n.     atom                  positions (alat units)
         1           Si  tau(   1) = (   0.0000000   0.0000000   0.0000000  )
         2           Si  tau(   2) = (   0.2500000   0.2500000   0.2500000  )

     number of k points=    29
                       cart. coord. in units 2pi/alat
        k(    1) = (   0.0000000   0.0000000   0.0000000), wk =   0.0039062
        k(    2) = (  -0.1250000   0.1250000  -0.1250000), wk =   0.0312500
        k(    3) = (  -0.2500000   0.2500000  -0.2500000), wk =   0.0312500
        k(    4) = (  -0.3750000   0.3750000  -0.3750000), wk =   0.0312500
        k(    5) = (   0.5000000  -0.5000000   0.5000000), wk =   0.0156250
        k(    6) = (   0.0000000   0.2500000   0.0000000), wk =   0.0234375
        k(    7) = (  -0.1250000   0.3750000  -0.1250000), wk =   0.0937500
        k(    8) = (  -0.2500000   0.5000000  -0.2500000), wk =   0.0937500
        k(    9) = (   0.6250000  -0.3750000   0.6250000), wk =   0.0937500
        k(   10) = (   0.5000000  -0.2500000   0.5000000), wk =   0.0937500
        k(   11) = (   0.3750000  -0.1250000   0.3750000), wk =   0.0937500
        k(   12) = (   0.2500000   0.0000000   0.2500000), wk =   0.0468750
        k(   13) = (   0.0000000   0.5000000   0.0000000), wk =   0.0234375
        k(   14) = (  -0.1250000   0.6250000  -0.1250000), wk =   0.0937500
        k(   15) = (   0.7500000  -0.2500000   0.7500000), wk =   0.0937500
        k(   16) = (   0.6250000  -0.1250000   0.6250000), wk =   0.0937500
        k(   17) = (   0.5000000   0.0000000   0.5000000), wk =   0.0468750
        k(   18) = (   0.0000000   0.7500000   0.0000000), wk =   0.0234375
        k(   19) = (   0.8750000  -0.1250000   0.8750000), wk =   0.0937500
        k(   20) = (   0.7500000   0.0000000   0.7500000), wk =   0.0468750
        k(   21) = (   0.0000000  -1.0000000   0.0000000), wk =   0.0117188
        k(   22) = (  -0.2500000   0.5000000   0.0000000), wk =   0.0937500
        k(   23) = (   0.6250000  -0.3750000   0.8750000), wk =   0.1875000
        k(   24) = (   0.5000000  -0.2500000   0.7500000), wk =   0.0937500
        k(   25) = (   0.7500000  -0.2500000   1.0000000), wk =   0.0937500
        k(   26) = (   0.6250000  -0.1250000   0.8750000), wk =   0.1875000
        k(   27) = (   0.5000000   0.0000000   0.7500000), wk =   0.0937500
        k(   28) = (  -0.2500000  -1.0000000   0.0000000), wk =   0.0468750
        k(   29) = (  -0.5000000  -1.0000000   0.0000000), wk =   0.0234375

     Dense  grid:    13731 G-vectors     FFT dimensions: (  36,  36,  36)

     Estimated max dynamical RAM per process >      12.78 MB

     Initial potential from superposition of free atoms

     starting charge       7.9990, renormalised to       8.0000
     Starting wfcs are    8 randomized atomic wfcs

     total cpu time spent up to now is        0.2 secs

     Self-consistent Calculation

     iteration #  1     ecut=    50.00 Ry     beta= 0.70
     Davidson diagonalization with overlap
     ethr =  1.00E-02,  avg # of iterations =  2.0

     Threshold (ethr) on eigenvalues was too large:
     Diagonalizing with lowered threshold

     Davidson diagonalization with overlap
     ethr =  6.03E-04,  avg # of iterations =  1.2

     total cpu time spent up to now is        0.8 secs

     total energy              =     -15.84582553 Ry
     estimated scf accuracy    <       0.05326792 Ry

     iteration #  2     ecut=    50.00 Ry     beta= 0.70
     Davidson diagonalization with overlap
     ethr =  6.66E-04,  avg # of iterations =  1.0

     total cpu time spent up to now is        1.1 secs

     total energy              =     -15.84825004 Ry
     estimated scf accuracy    <       0.00218609 Ry

     iteration #  3     ecut=    50.00 Ry     beta= 0.70
     Davidson diagonalization with overlap
     ethr =  2.73E-05,  avg # of iterations =  2.2

     total cpu time spent up to now is        1.4 secs

     total energy              =     -15.84863451 Ry
     estimated scf accuracy    <       0.00006212 Ry

     iteration #  4     ecut=    50.00 Ry     beta= 0.70
     Davidson diagonalization with overlap
     ethr =  7.77E-07,  avg # of iterations =  3.2

     total cpu time spent up to now is        1.8 secs

     total energy              =     -15.84866569 Ry
     estimated scf accuracy    <       0.00000128 Ry

     iteration #  5     ecut=    50.00 Ry     beta= 0.70
     Davidson diagonalization with overlap
     ethr =  1.61E-08,  avg # of iterations =  4.4

     total cpu time spent up to now is        2.2 secs

     total energy              =     -15.84866693 Ry
     estimated scf accuracy    <       0.00000007 Ry

     iteration #  6     ecut=    50.00 Ry     beta= 0.70
     Davidson diagonalization with overlap
     ethr =  8.38E-10,  avg # of iterations =  3.4

     total cpu time spent up to now is        2.7 secs

     total energy              =     -15.84866696 Ry
     estimated scf accuracy    <       0.00000002 Ry

     iteration #  7     ecut=    50.00 Ry     beta= 0.70
     Davidson diagonalization with overlap
     ethr =  2.21E-10,  avg # of iterations =  2.1

     total cpu time spent up to now is        3.0 secs

     End of self-consistent calculation

          k = 0.0000 0.0000 0.0000 (  1687 PWs)   bands (ev):

    -6.0922   5.4390   5.4390   5.4390

          k =-0.1250 0.1250-0.1250 (  1726 PWs)   bands (ev):

    -5.8983   3.8536   5.1671   5.1671

          k =-0.2500 0.2500-0.2500 (  1724 PWs)   bands (ev):

    -5.3331   1.6179   4.7176   4.7176

          k =-0.3750 0.3750-0.3750 (  1706 PWs)   bands (ev):

    -4.4888  -0.3059   4.4018   4.4018

          k = 0.5000-0.5000 0.5000 (  1718 PWs)   bands (ev):

    -3.8944  -1.2686   4.2932   4.2932

          k = 0.0000 0.2500 0.0000 (  1720 PWs)   bands (ev):

    -5.8329   4.0489   4.6846   4.6846

          k =-0.1250 0.3750-0.1250 (  1718 PWs)   bands (ev):

    -5.3878   2.2633   4.1972   4.2374

          k =-0.2500 0.5000-0.2500 (  1713 PWs)   bands (ev):

    -4.6162   0.3091   3.6653   3.9374

          k = 0.6250-0.3750 0.6250 (  1715 PWs)   bands (ev):

    -3.8092  -1.0707   3.2419   3.9555

          k = 0.5000-0.2500 0.5000 (  1715 PWs)   bands (ev):

    -4.0368  -0.7230   3.0768   4.2334

          k = 0.3750-0.1250 0.3750 (  1710 PWs)   bands (ev):

    -4.9059   0.9336   3.2360   4.6981

          k = 0.2500 0.0000 0.2500 (  1727 PWs)   bands (ev):

    -5.5790   2.7787   3.9066   5.1544

          k = 0.0000 0.5000 0.0000 (  1716 PWs)   bands (ev):

    -5.0642   1.9288   3.6555   3.6555

          k =-0.1250 0.6250-0.1250 (  1707 PWs)   bands (ev):

    -4.3909   0.5830   2.9065   3.3503

          k = 0.7500-0.2500 0.7500 (  1719 PWs)   bands (ev):

    -3.5186  -0.7700   2.0791   3.3504

          k = 0.6250-0.1250 0.6250 (  1716 PWs)   bands (ev):

    -3.3303  -1.0082   1.6470   3.6505

          k = 0.5000 0.0000 0.5000 (  1718 PWs)   bands (ev):

    -4.1552   0.0834   1.8872   4.1775

          k = 0.0000 0.7500 0.0000 (  1712 PWs)   bands (ev):

    -3.8181  -0.1938   2.9705   2.9705

          k = 0.8750-0.1250 0.8750 (  1707 PWs)   bands (ev):

    -2.9691  -1.2245   2.1926   2.8967

          k = 0.7500 0.0000 0.7500 (  1710 PWs)   bands (ev):

    -2.5657  -1.5929   1.3794   3.1408

          k = 0.0000-1.0000 0.0000 (  1724 PWs)   bands (ev):

    -2.1584  -2.1584   2.7352   2.7352

          k =-0.2500 0.5000 0.0000 (  1705 PWs)   bands (ev):

    -4.8301   1.2168   2.8742   4.0811

          k = 0.6250-0.3750 0.8750 (  1711 PWs)   bands (ev):

    -3.9908  -0.2475   2.2763   3.6141

          k = 0.5000-0.2500 0.7500 (  1704 PWs)   bands (ev):

    -3.3820  -1.1296   2.1420   3.4007

          k = 0.7500-0.2500 1.0000 (  1706 PWs)   bands (ev):

    -3.6322  -0.4015   2.2579   2.8360

          k = 0.6250-0.1250 0.8750 (  1706 PWs)   bands (ev):

    -2.8110  -1.3158   1.6006   2.6459

          k = 0.5000 0.0000 0.7500 (  1714 PWs)   bands (ev):

    -3.1426  -0.9688   1.4437   2.9995

          k =-0.2500-1.0000 0.0000 (  1702 PWs)   bands (ev):

    -2.0893  -2.0893   2.2115   2.2115

          k =-0.5000-1.0000 0.0000 (  1708 PWs)   bands (ev):

    -2.0140  -2.0140   1.8063   1.8063

     highest occupied level (ev):     5.4390

!    total energy              =     -15.84866697 Ry
     estimated scf accuracy    <          1.0E-11 Ry

     The total energy is the sum of the following terms:
     one-electron contribution =       4.20693777 Ry
     hartree contribution      =       1.14497343 Ry
     xc contribution           =      -4.73405679 Ry
     ewald contribution        =     -16.46652139 Ry

     convergence has been achieved in   7 iterations

     Writing all to output data dir ./SCRATCH/silicon.save/

     init_run     :      0.22s CPU      0.23s WALL (       1 calls)
     electrons    :      2.67s CPU      2.79s WALL (       1 calls)

     Called by init_run:
     wfcinit      :      0.20s CPU      0.20s WALL (       1 calls)
     potinit      :      0.00s CPU      0.01s WALL (       1 calls)
     hinit0       :      0.00s CPU      0.01s WALL (       1 calls)

     Called by electrons:
     c_bands      :      2.27s CPU      2.37s WALL (       8 calls)
     sum_band     :      0.39s CPU      0.39s WALL (       8 calls)
     v_of_rho     :      0.02s CPU      0.02s WALL (       8 calls)
     mix_rho      :      0.00s CPU      0.01s WALL (       8 calls)

     Called by c_bands:
     init_us_2    :      0.12s CPU      0.08s WALL (     493 calls)
     init_us_2:cp :      0.12s CPU      0.08s WALL (     493 calls)
     cegterg      :      2.20s CPU      2.26s WALL (     232 calls)

     Called by *egterg:
     cdiaghg      :      0.00s CPU      0.02s WALL (     766 calls)
     h_psi        :      2.19s CPU      2.22s WALL (     824 calls)
     g_psi        :      0.05s CPU      0.01s WALL (     563 calls)

     Called by h_psi:
     h_psi:calbec :      0.06s CPU      0.06s WALL (     824 calls)
     vloc_psi     :      2.00s CPU      2.11s WALL (     824 calls)
     add_vuspsi   :      0.09s CPU      0.04s WALL (     824 calls)

     General routines
     calbec       :      0.06s CPU      0.05s WALL (     824 calls)
     fft          :      0.00s CPU      0.01s WALL (      24 calls)
     ffts         :      0.00s CPU      0.00s WALL (       8 calls)
     fftw         :      2.09s CPU      2.16s WALL (    6818 calls)


     PWSCF        :      2.91s CPU      3.05s WALL


   This run was terminated on:   9:56:13  16May2024            

=------------------------------------------------------------------------------=
   JOB DONE.
=------------------------------------------------------------------------------=
