
     Program PWSCF v.7.2 starts on  9Jun2024 at 11:34:26 

     This program is part of the open-source Quantum ESPRESSO suite
     for quantum simulation of materials; please cite
         "P. Giannozzi et al., J. Phys.:Condens. Matter 21 395502 (2009);
         "P. Giannozzi et al., J. Phys.:Condens. Matter 29 465901 (2017);
         "P. Giannozzi et al., J. Chem. Phys. 152 154105 (2020);
          URL http://www.quantum-espresso.org", 
     in publications or presentations arising from this work. More details at
     http://www.quantum-espresso.org/quote

     Serial version
     8851 MiB available memory on the printing compute node when the environment starts

     Waiting for input...
     Reading input from standard input

     Current dimensions of program PWSCF are:
     Max number of different atomic species (ntypx) = 10
     Max number of k-points (npk) =  40000
     Max angular momentum in pseudopotentials (lmaxx) =  4


     G-vector sticks info
     --------------------
     sticks:   dense  smooth     PW     G-vecs:    dense   smooth      PW
     Sum         595     595    199                 9841     9841    1759

     Using Slab Decomposition



     bravais-lattice index     =            2
     lattice parameter (alat)  =      10.4684  a.u.
     unit-cell volume          =     286.7982 (a.u.)^3
     number of atoms/cell      =            2
     number of atomic types    =            1
     number of electrons       =         8.00
     number of Kohn-Sham states=            4
     kinetic-energy cutoff     =      40.0000  Ry
     charge density cutoff     =     160.0000  Ry
     scf convergence threshold =      1.0E-08
     mixing beta               =       0.7000
     number of iterations used =            8  plain     mixing
     Exchange-correlation= PBE
                           (   1   4   3   4   0   0   0)

     celldm(1)=  10.468364  celldm(2)=   0.000000  celldm(3)=   0.000000
     celldm(4)=   0.000000  celldm(5)=   0.000000  celldm(6)=   0.000000

     crystal axes: (cart. coord. in units of alat)
               a(1) = (  -0.500000   0.000000   0.500000 )  
               a(2) = (   0.000000   0.500000   0.500000 )  
               a(3) = (  -0.500000   0.500000   0.000000 )  

     reciprocal axes: (cart. coord. in units 2 pi/alat)
               b(1) = ( -1.000000 -1.000000  1.000000 )  
               b(2) = (  1.000000  1.000000  1.000000 )  
               b(3) = ( -1.000000  1.000000 -1.000000 )  


     PseudoPot. # 1 for Si read from file:
     /home/paolo/project_labqsm/pseudopotentials/Si_ONCV_PBE-1.2.upf
     MD5 check sum: 7f029a58b69e3aa87b46a36c608bf45e
     Pseudo is Norm-conserving, Zval =  4.0
     Generated using ONCVPSP code by D. R. Hamann
     Using radial grid of  602 points,  4 beta functions with: 
                l(1) =   0
                l(2) =   0
                l(3) =   1
                l(4) =   1

     atomic species   valence    mass     pseudopotential
        Si             4.00    28.08500     Si( 1.00)

     48 Sym. Ops., with inversion, found (24 have fractional translation)



   Cartesian axes

     site n.     atom                  positions (alat units)
         1           Si  tau(   1) = (   0.0000000   0.0000000   0.0000000  )
         2           Si  tau(   2) = (   0.2500000   0.2500000   0.2500000  )

     number of k points=    29
                       cart. coord. in units 2pi/alat
        k(    1) = (   0.0000000   0.0000000   0.0000000), wk =   0.0039062
        k(    2) = (  -0.1250000   0.1250000  -0.1250000), wk =   0.0312500
        k(    3) = (  -0.2500000   0.2500000  -0.2500000), wk =   0.0312500
        k(    4) = (  -0.3750000   0.3750000  -0.3750000), wk =   0.0312500
        k(    5) = (   0.5000000  -0.5000000   0.5000000), wk =   0.0156250
        k(    6) = (   0.0000000   0.2500000   0.0000000), wk =   0.0234375
        k(    7) = (  -0.1250000   0.3750000  -0.1250000), wk =   0.0937500
        k(    8) = (  -0.2500000   0.5000000  -0.2500000), wk =   0.0937500
        k(    9) = (   0.6250000  -0.3750000   0.6250000), wk =   0.0937500
        k(   10) = (   0.5000000  -0.2500000   0.5000000), wk =   0.0937500
        k(   11) = (   0.3750000  -0.1250000   0.3750000), wk =   0.0937500
        k(   12) = (   0.2500000   0.0000000   0.2500000), wk =   0.0468750
        k(   13) = (   0.0000000   0.5000000   0.0000000), wk =   0.0234375
        k(   14) = (  -0.1250000   0.6250000  -0.1250000), wk =   0.0937500
        k(   15) = (   0.7500000  -0.2500000   0.7500000), wk =   0.0937500
        k(   16) = (   0.6250000  -0.1250000   0.6250000), wk =   0.0937500
        k(   17) = (   0.5000000   0.0000000   0.5000000), wk =   0.0468750
        k(   18) = (   0.0000000   0.7500000   0.0000000), wk =   0.0234375
        k(   19) = (   0.8750000  -0.1250000   0.8750000), wk =   0.0937500
        k(   20) = (   0.7500000   0.0000000   0.7500000), wk =   0.0468750
        k(   21) = (   0.0000000  -1.0000000   0.0000000), wk =   0.0117188
        k(   22) = (  -0.2500000   0.5000000   0.0000000), wk =   0.0937500
        k(   23) = (   0.6250000  -0.3750000   0.8750000), wk =   0.1875000
        k(   24) = (   0.5000000  -0.2500000   0.7500000), wk =   0.0937500
        k(   25) = (   0.7500000  -0.2500000   1.0000000), wk =   0.0937500
        k(   26) = (   0.6250000  -0.1250000   0.8750000), wk =   0.1875000
        k(   27) = (   0.5000000   0.0000000   0.7500000), wk =   0.0937500
        k(   28) = (  -0.2500000  -1.0000000   0.0000000), wk =   0.0468750
        k(   29) = (  -0.5000000  -1.0000000   0.0000000), wk =   0.0234375

     Dense  grid:     9841 G-vectors     FFT dimensions: (  32,  32,  32)

     Estimated max dynamical RAM per process >       9.48 MB

     Initial potential from superposition of free atoms

     starting charge       7.9075, renormalised to       8.0000
     Starting wfcs are random

     total cpu time spent up to now is        0.1 secs

     Self-consistent Calculation

     iteration #  1     ecut=    40.00 Ry     beta= 0.70
     Davidson diagonalization with overlap
     ethr =  1.00E-02,  avg # of iterations =  8.1

     Threshold (ethr) on eigenvalues was too large:
     Diagonalizing with lowered threshold

     Davidson diagonalization with overlap
     ethr =  5.19E-04,  avg # of iterations =  3.9

     total cpu time spent up to now is        0.9 secs

     total energy              =     -15.76252296 Ry
     estimated scf accuracy    <       0.04766003 Ry

     iteration #  2     ecut=    40.00 Ry     beta= 0.70
     Davidson diagonalization with overlap
     ethr =  5.96E-04,  avg # of iterations =  1.0

     total cpu time spent up to now is        1.1 secs

     total energy              =     -15.76452931 Ry
     estimated scf accuracy    <       0.00235312 Ry

     iteration #  3     ecut=    40.00 Ry     beta= 0.70
     Davidson diagonalization with overlap
     ethr =  2.94E-05,  avg # of iterations =  2.9

     total cpu time spent up to now is        1.3 secs

     total energy              =     -15.76509887 Ry
     estimated scf accuracy    <       0.00003719 Ry

     iteration #  4     ecut=    40.00 Ry     beta= 0.70
     Davidson diagonalization with overlap
     ethr =  4.65E-07,  avg # of iterations =  5.3

     total cpu time spent up to now is        1.7 secs

     total energy              =     -15.76514958 Ry
     estimated scf accuracy    <       0.00000021 Ry

     iteration #  5     ecut=    40.00 Ry     beta= 0.70
     Davidson diagonalization with overlap
     ethr =  2.59E-09,  avg # of iterations =  5.9

     total cpu time spent up to now is        2.1 secs

     total energy              =     -15.76515041 Ry
     estimated scf accuracy    <       0.00000002 Ry

     iteration #  6     ecut=    40.00 Ry     beta= 0.70
     Davidson diagonalization with overlap
     ethr =  1.92E-10,  avg # of iterations =  2.8

     total cpu time spent up to now is        2.3 secs

     End of self-consistent calculation

          k = 0.0000 0.0000 0.0000 (  1243 PWs)   bands (ev):

    -5.9416   5.6193   5.6193   5.6193

          k =-0.1250 0.1250-0.1250 (  1242 PWs)   bands (ev):

    -5.7479   4.0318   5.3486   5.3486

          k =-0.2500 0.2500-0.2500 (  1227 PWs)   bands (ev):

    -5.1840   1.7944   4.9012   4.9012

          k =-0.3750 0.3750-0.3750 (  1227 PWs)   bands (ev):

    -4.3445  -0.1256   4.5870   4.5870

          k = 0.5000-0.5000 0.5000 (  1224 PWs)   bands (ev):

    -3.7583  -1.0801   4.4789   4.4789

          k = 0.0000 0.2500 0.0000 (  1235 PWs)   bands (ev):

    -5.6825   4.2204   4.8684   4.8684

          k =-0.1250 0.3750-0.1250 (  1233 PWs)   bands (ev):

    -5.2383   2.4330   4.3835   4.4235

          k =-0.2500 0.5000-0.2500 (  1230 PWs)   bands (ev):

    -4.4697   0.4817   3.8538   4.1248

          k = 0.6250-0.3750 0.6250 (  1217 PWs)   bands (ev):

    -3.6710  -0.8894   3.4321   4.1428

          k = 0.5000-0.2500 0.5000 (  1220 PWs)   bands (ev):

    -3.8954  -0.5450   3.2687   4.4194

          k = 0.3750-0.1250 0.3750 (  1232 PWs)   bands (ev):

    -4.7582   1.1045   3.4295   4.8818

          k = 0.2500 0.0000 0.2500 (  1229 PWs)   bands (ev):

    -5.4291   2.9490   4.0988   5.3360

          k = 0.0000 0.5000 0.0000 (  1243 PWs)   bands (ev):

    -4.9149   2.0849   3.8444   3.8444

          k =-0.1250 0.6250-0.1250 (  1236 PWs)   bands (ev):

    -4.2431   0.7368   3.1032   3.5409

          k = 0.7500-0.2500 0.7500 (  1225 PWs)   bands (ev):

    -3.3763  -0.6109   2.2820   3.5410

          k = 0.6250-0.1250 0.6250 (  1217 PWs)   bands (ev):

    -3.1916  -0.8459   1.8543   3.8395

          k = 0.5000 0.0000 0.5000 (  1211 PWs)   bands (ev):

    -4.0102   0.2409   2.0958   4.3637

          k = 0.0000 0.7500 0.0000 (  1230 PWs)   bands (ev):

    -3.6704  -0.0459   3.1632   3.1632

          k = 0.8750-0.1250 0.8750 (  1223 PWs)   bands (ev):

    -2.8237  -1.0787   2.3972   3.0899

          k = 0.7500 0.0000 0.7500 (  1214 PWs)   bands (ev):

    -2.4277  -1.4436   1.5956   3.3326

          k = 0.0000-1.0000 0.0000 (  1234 PWs)   bands (ev):

    -2.0120  -2.0120   2.9293   2.9293

          k =-0.2500 0.5000 0.0000 (  1228 PWs)   bands (ev):

    -4.6819   1.3763   3.0735   4.2681

          k = 0.6250-0.3750 0.8750 (  1228 PWs)   bands (ev):

    -3.8466  -0.0853   2.4765   3.8055

          k = 0.5000-0.2500 0.7500 (  1218 PWs)   bands (ev):

    -3.2448  -0.9593   2.3406   3.5943

          k = 0.7500-0.2500 1.0000 (  1230 PWs)   bands (ev):

    -3.4865  -0.2542   2.4616   3.0346

          k = 0.6250-0.1250 0.8750 (  1217 PWs)   bands (ev):

    -2.6709  -1.1677   1.8126   2.8469

          k = 0.5000 0.0000 0.7500 (  1216 PWs)   bands (ev):

    -3.0020  -0.8195   1.6579   3.1971

          k =-0.2500-1.0000 0.0000 (  1218 PWs)   bands (ev):

    -1.9455  -1.9455   2.4160   2.4160

          k =-0.5000-1.0000 0.0000 (  1216 PWs)   bands (ev):

    -1.8734  -1.8734   2.0180   2.0180

     highest occupied level (ev):     5.6193

!    total energy              =     -15.76515041 Ry
     estimated scf accuracy    <          1.3E-09 Ry

     The total energy is the sum of the following terms:
     one-electron contribution =       4.30143773 Ry
     hartree contribution      =       1.15433980 Ry
     xc contribution           =      -4.75440655 Ry
     ewald contribution        =     -16.46652139 Ry

     convergence has been achieved in   6 iterations

     Writing all to output data dir ./SCRATCH/silicon.save/

     init_run     :      0.06s CPU      0.11s WALL (       1 calls)
     electrons    :      2.11s CPU      2.21s WALL (       1 calls)

     Called by init_run:
     wfcinit      :      0.05s CPU      0.07s WALL (       1 calls)
     potinit      :      0.02s CPU      0.02s WALL (       1 calls)
     hinit0       :      0.00s CPU      0.01s WALL (       1 calls)

     Called by electrons:
     c_bands      :      1.83s CPU      1.90s WALL (       7 calls)
     sum_band     :      0.22s CPU      0.22s WALL (       7 calls)
     v_of_rho     :      0.08s CPU      0.08s WALL (       7 calls)
     mix_rho      :      0.00s CPU      0.01s WALL (       7 calls)

     Called by c_bands:
     init_us_2    :      0.03s CPU      0.06s WALL (     435 calls)
     init_us_2:cp :      0.03s CPU      0.05s WALL (     435 calls)
     cegterg      :      1.78s CPU      1.81s WALL (     203 calls)

     Called by *egterg:
     cdiaghg      :      0.02s CPU      0.02s WALL (    1044 calls)
     h_psi        :      1.70s CPU      1.70s WALL (    1102 calls)
     g_psi        :      0.00s CPU      0.01s WALL (     870 calls)

     Called by h_psi:
     h_psi:calbec :      0.08s CPU      0.07s WALL (    1102 calls)
     vloc_psi     :      1.59s CPU      1.55s WALL (    1102 calls)
     add_vuspsi   :      0.03s CPU      0.05s WALL (    1102 calls)

     General routines
     calbec       :      0.08s CPU      0.07s WALL (    1102 calls)
     fft          :      0.03s CPU      0.02s WALL (      70 calls)
     ffts         :      0.00s CPU      0.00s WALL (       7 calls)
     fftw         :      1.61s CPU      1.55s WALL (    7600 calls)


     PWSCF        :      2.19s CPU      2.35s WALL


   This run was terminated on:  11:34:28   9Jun2024            

=------------------------------------------------------------------------------=
   JOB DONE.
=------------------------------------------------------------------------------=
