
     Program PWSCF v.7.2 starts on  9Jun2024 at 11:34:53 

     This program is part of the open-source Quantum ESPRESSO suite
     for quantum simulation of materials; please cite
         "P. Giannozzi et al., J. Phys.:Condens. Matter 21 395502 (2009);
         "P. Giannozzi et al., J. Phys.:Condens. Matter 29 465901 (2017);
         "P. Giannozzi et al., J. Chem. Phys. 152 154105 (2020);
          URL http://www.quantum-espresso.org", 
     in publications or presentations arising from this work. More details at
     http://www.quantum-espresso.org/quote

     Serial version
     8854 MiB available memory on the printing compute node when the environment starts

     Waiting for input...
     Reading input from standard input

     Current dimensions of program PWSCF are:
     Max number of different atomic species (ntypx) = 10
     Max number of k-points (npk) =  40000
     Max angular momentum in pseudopotentials (lmaxx) =  4


     G-vector sticks info
     --------------------
     sticks:   dense  smooth     PW     G-vecs:    dense   smooth      PW
     Sum        1813    1813    511                51109    51109    7799

     Using Slab Decomposition



     bravais-lattice index     =            2
     lattice parameter (alat)  =      10.4684  a.u.
     unit-cell volume          =     286.7982 (a.u.)^3
     number of atoms/cell      =            2
     number of atomic types    =            1
     number of electrons       =         8.00
     number of Kohn-Sham states=            4
     kinetic-energy cutoff     =     120.0000  Ry
     charge density cutoff     =     480.0000  Ry
     scf convergence threshold =      1.0E-08
     mixing beta               =       0.7000
     number of iterations used =            8  plain     mixing
     Exchange-correlation= PBE
                           (   1   4   3   4   0   0   0)

     celldm(1)=  10.468364  celldm(2)=   0.000000  celldm(3)=   0.000000
     celldm(4)=   0.000000  celldm(5)=   0.000000  celldm(6)=   0.000000

     crystal axes: (cart. coord. in units of alat)
               a(1) = (  -0.500000   0.000000   0.500000 )  
               a(2) = (   0.000000   0.500000   0.500000 )  
               a(3) = (  -0.500000   0.500000   0.000000 )  

     reciprocal axes: (cart. coord. in units 2 pi/alat)
               b(1) = ( -1.000000 -1.000000  1.000000 )  
               b(2) = (  1.000000  1.000000  1.000000 )  
               b(3) = ( -1.000000  1.000000 -1.000000 )  


     PseudoPot. # 1 for Si read from file:
     /home/paolo/project_labqsm/pseudopotentials/Si_ONCV_PBE-1.2.upf
     MD5 check sum: 7f029a58b69e3aa87b46a36c608bf45e
     Pseudo is Norm-conserving, Zval =  4.0
     Generated using ONCVPSP code by D. R. Hamann
     Using radial grid of  602 points,  4 beta functions with: 
                l(1) =   0
                l(2) =   0
                l(3) =   1
                l(4) =   1

     atomic species   valence    mass     pseudopotential
        Si             4.00    28.08500     Si( 1.00)

     48 Sym. Ops., with inversion, found (24 have fractional translation)



   Cartesian axes

     site n.     atom                  positions (alat units)
         1           Si  tau(   1) = (   0.0000000   0.0000000   0.0000000  )
         2           Si  tau(   2) = (   0.2500000   0.2500000   0.2500000  )

     number of k points=    29
                       cart. coord. in units 2pi/alat
        k(    1) = (   0.0000000   0.0000000   0.0000000), wk =   0.0039062
        k(    2) = (  -0.1250000   0.1250000  -0.1250000), wk =   0.0312500
        k(    3) = (  -0.2500000   0.2500000  -0.2500000), wk =   0.0312500
        k(    4) = (  -0.3750000   0.3750000  -0.3750000), wk =   0.0312500
        k(    5) = (   0.5000000  -0.5000000   0.5000000), wk =   0.0156250
        k(    6) = (   0.0000000   0.2500000   0.0000000), wk =   0.0234375
        k(    7) = (  -0.1250000   0.3750000  -0.1250000), wk =   0.0937500
        k(    8) = (  -0.2500000   0.5000000  -0.2500000), wk =   0.0937500
        k(    9) = (   0.6250000  -0.3750000   0.6250000), wk =   0.0937500
        k(   10) = (   0.5000000  -0.2500000   0.5000000), wk =   0.0937500
        k(   11) = (   0.3750000  -0.1250000   0.3750000), wk =   0.0937500
        k(   12) = (   0.2500000   0.0000000   0.2500000), wk =   0.0468750
        k(   13) = (   0.0000000   0.5000000   0.0000000), wk =   0.0234375
        k(   14) = (  -0.1250000   0.6250000  -0.1250000), wk =   0.0937500
        k(   15) = (   0.7500000  -0.2500000   0.7500000), wk =   0.0937500
        k(   16) = (   0.6250000  -0.1250000   0.6250000), wk =   0.0937500
        k(   17) = (   0.5000000   0.0000000   0.5000000), wk =   0.0468750
        k(   18) = (   0.0000000   0.7500000   0.0000000), wk =   0.0234375
        k(   19) = (   0.8750000  -0.1250000   0.8750000), wk =   0.0937500
        k(   20) = (   0.7500000   0.0000000   0.7500000), wk =   0.0468750
        k(   21) = (   0.0000000  -1.0000000   0.0000000), wk =   0.0117188
        k(   22) = (  -0.2500000   0.5000000   0.0000000), wk =   0.0937500
        k(   23) = (   0.6250000  -0.3750000   0.8750000), wk =   0.1875000
        k(   24) = (   0.5000000  -0.2500000   0.7500000), wk =   0.0937500
        k(   25) = (   0.7500000  -0.2500000   1.0000000), wk =   0.0937500
        k(   26) = (   0.6250000  -0.1250000   0.8750000), wk =   0.1875000
        k(   27) = (   0.5000000   0.0000000   0.7500000), wk =   0.0937500
        k(   28) = (  -0.2500000  -1.0000000   0.0000000), wk =   0.0468750
        k(   29) = (  -0.5000000  -1.0000000   0.0000000), wk =   0.0234375

     Dense  grid:    51109 G-vectors     FFT dimensions: (  60,  60,  60)

     Estimated max dynamical RAM per process >      51.35 MB

     Initial potential from superposition of free atoms

     starting charge       7.9075, renormalised to       8.0000
     Starting wfcs are random

     total cpu time spent up to now is        0.7 secs

     Self-consistent Calculation

     iteration #  1     ecut=   120.00 Ry     beta= 0.70
     Davidson diagonalization with overlap
     ethr =  1.00E-02,  avg # of iterations =  8.2

     Threshold (ethr) on eigenvalues was too large:
     Diagonalizing with lowered threshold

     Davidson diagonalization with overlap
     ethr =  5.38E-04,  avg # of iterations =  3.2

     total cpu time spent up to now is        6.0 secs

     total energy              =     -15.76270019 Ry
     estimated scf accuracy    <       0.04724711 Ry

     iteration #  2     ecut=   120.00 Ry     beta= 0.70
     Davidson diagonalization with overlap
     ethr =  5.91E-04,  avg # of iterations =  1.0

     total cpu time spent up to now is        7.2 secs

     total energy              =     -15.76477821 Ry
     estimated scf accuracy    <       0.00239403 Ry

     iteration #  3     ecut=   120.00 Ry     beta= 0.70
     Davidson diagonalization with overlap
     ethr =  2.99E-05,  avg # of iterations =  3.0

     total cpu time spent up to now is        8.9 secs

     total energy              =     -15.76541093 Ry
     estimated scf accuracy    <       0.00003968 Ry

     iteration #  4     ecut=   120.00 Ry     beta= 0.70
     Davidson diagonalization with overlap
     ethr =  4.96E-07,  avg # of iterations =  5.1

     total cpu time spent up to now is       11.3 secs

     total energy              =     -15.76547758 Ry
     estimated scf accuracy    <       0.00000028 Ry

     iteration #  5     ecut=   120.00 Ry     beta= 0.70
     Davidson diagonalization with overlap
     ethr =  3.54E-09,  avg # of iterations =  5.6

     total cpu time spent up to now is       13.9 secs

     total energy              =     -15.76547834 Ry
     estimated scf accuracy    <       0.00000001 Ry

     iteration #  6     ecut=   120.00 Ry     beta= 0.70
     Davidson diagonalization with overlap
     ethr =  1.50E-10,  avg # of iterations =  3.7

     total cpu time spent up to now is       15.7 secs

     End of self-consistent calculation

          k = 0.0000 0.0000 0.0000 (  6375 PWs)   bands (ev):

    -5.9413   5.6172   5.6172   5.6172

          k =-0.1250 0.1250-0.1250 (  6354 PWs)   bands (ev):

    -5.7477   4.0307   5.3469   5.3469

          k =-0.2500 0.2500-0.2500 (  6345 PWs)   bands (ev):

    -5.1838   1.7939   4.8999   4.8999

          k =-0.3750 0.3750-0.3750 (  6366 PWs)   bands (ev):

    -4.3444  -0.1256   4.5860   4.5860

          k = 0.5000-0.5000 0.5000 (  6394 PWs)   bands (ev):

    -3.7583  -1.0800   4.4780   4.4780

          k = 0.0000 0.2500 0.0000 (  6355 PWs)   bands (ev):

    -5.6823   4.2192   4.8670   4.8670

          k =-0.1250 0.3750-0.1250 (  6346 PWs)   bands (ev):

    -5.2381   2.4324   4.3824   4.4224

          k =-0.2500 0.5000-0.2500 (  6343 PWs)   bands (ev):

    -4.4695   0.4815   3.8530   4.1241

          k = 0.6250-0.3750 0.6250 (  6359 PWs)   bands (ev):

    -3.6709  -0.8893   3.4315   4.1421

          k = 0.5000-0.2500 0.5000 (  6365 PWs)   bands (ev):

    -3.8953  -0.5450   3.2681   4.4185

          k = 0.3750-0.1250 0.3750 (  6369 PWs)   bands (ev):

    -4.7580   1.1041   3.4288   4.8806

          k = 0.2500 0.0000 0.2500 (  6317 PWs)   bands (ev):

    -5.4289   2.9482   4.0977   5.3343

          k = 0.0000 0.5000 0.0000 (  6374 PWs)   bands (ev):

    -4.9147   2.0844   3.8437   3.8437

          k =-0.1250 0.6250-0.1250 (  6351 PWs)   bands (ev):

    -4.2429   0.7366   3.1027   3.5404

          k = 0.7500-0.2500 0.7500 (  6359 PWs)   bands (ev):

    -3.3762  -0.6110   2.2816   3.5405

          k = 0.6250-0.1250 0.6250 (  6379 PWs)   bands (ev):

    -3.1915  -0.8460   1.8541   3.8389

          k = 0.5000 0.0000 0.5000 (  6375 PWs)   bands (ev):

    -4.0101   0.2407   2.0955   4.3628

          k = 0.0000 0.7500 0.0000 (  6374 PWs)   bands (ev):

    -3.6702  -0.0461   3.1630   3.1630

          k = 0.8750-0.1250 0.8750 (  6371 PWs)   bands (ev):

    -2.8236  -1.0787   2.3969   3.0897

          k = 0.7500 0.0000 0.7500 (  6343 PWs)   bands (ev):

    -2.4277  -1.4436   1.5955   3.3322

          k = 0.0000-1.0000 0.0000 (  6386 PWs)   bands (ev):

    -2.0119  -2.0119   2.9292   2.9292

          k =-0.2500 0.5000 0.0000 (  6357 PWs)   bands (ev):

    -4.6817   1.3759   3.0730   4.2671

          k = 0.6250-0.3750 0.8750 (  6371 PWs)   bands (ev):

    -3.8465  -0.0854   2.4762   3.8048

          k = 0.5000-0.2500 0.7500 (  6382 PWs)   bands (ev):

    -3.2447  -0.9593   2.3402   3.5937

          k = 0.7500-0.2500 1.0000 (  6363 PWs)   bands (ev):

    -3.4864  -0.2543   2.4614   3.0341

          k = 0.6250-0.1250 0.8750 (  6378 PWs)   bands (ev):

    -2.6709  -1.1677   1.8124   2.8465

          k = 0.5000 0.0000 0.7500 (  6378 PWs)   bands (ev):

    -3.0019  -0.8196   1.6577   3.1966

          k =-0.2500-1.0000 0.0000 (  6384 PWs)   bands (ev):

    -1.9455  -1.9455   2.4158   2.4158

          k =-0.5000-1.0000 0.0000 (  6352 PWs)   bands (ev):

    -1.8734  -1.8734   2.0178   2.0178

     highest occupied level (ev):     5.6172

!    total energy              =     -15.76547835 Ry
     estimated scf accuracy    <          6.2E-11 Ry

     The total energy is the sum of the following terms:
     one-electron contribution =       4.30091168 Ry
     hartree contribution      =       1.15455701 Ry
     xc contribution           =      -4.75442568 Ry
     ewald contribution        =     -16.46652136 Ry

     convergence has been achieved in   6 iterations

     Writing all to output data dir ./SCRATCH/silicon.save/

     init_run     :      0.64s CPU      0.69s WALL (       1 calls)
     electrons    :     14.92s CPU     15.05s WALL (       1 calls)

     Called by init_run:
     wfcinit      :      0.47s CPU      0.49s WALL (       1 calls)
     potinit      :      0.09s CPU      0.12s WALL (       1 calls)
     hinit0       :      0.03s CPU      0.03s WALL (       1 calls)

     Called by electrons:
     c_bands      :     12.86s CPU     12.92s WALL (       7 calls)
     sum_band     :      1.61s CPU      1.58s WALL (       7 calls)
     v_of_rho     :      0.50s CPU      0.60s WALL (       7 calls)
     mix_rho      :      0.02s CPU      0.04s WALL (       7 calls)

     Called by c_bands:
     init_us_2    :      0.22s CPU      0.29s WALL (     435 calls)
     init_us_2:cp :      0.22s CPU      0.29s WALL (     435 calls)
     cegterg      :     12.55s CPU     12.55s WALL (     203 calls)

     Called by *egterg:
     cdiaghg      :      0.03s CPU      0.02s WALL (    1037 calls)
     h_psi        :     12.03s CPU     12.21s WALL (    1095 calls)
     g_psi        :      0.08s CPU      0.04s WALL (     863 calls)

     Called by h_psi:
     h_psi:calbec :      0.47s CPU      0.39s WALL (    1095 calls)
     vloc_psi     :     11.25s CPU     11.52s WALL (    1095 calls)
     add_vuspsi   :      0.28s CPU      0.26s WALL (    1095 calls)

     General routines
     calbec       :      0.47s CPU      0.39s WALL (    1095 calls)
     fft          :      0.11s CPU      0.18s WALL (      70 calls)
     ffts         :      0.00s CPU      0.02s WALL (       7 calls)
     fftw         :     11.72s CPU     11.77s WALL (    7596 calls)


     PWSCF        :     15.56s CPU     15.77s WALL


   This run was terminated on:  11:35: 8   9Jun2024            

=------------------------------------------------------------------------------=
   JOB DONE.
=------------------------------------------------------------------------------=
