
     Program PWSCF v.7.2 starts on  9Jun2024 at 11:34:28 

     This program is part of the open-source Quantum ESPRESSO suite
     for quantum simulation of materials; please cite
         "P. Giannozzi et al., J. Phys.:Condens. Matter 21 395502 (2009);
         "P. Giannozzi et al., J. Phys.:Condens. Matter 29 465901 (2017);
         "P. Giannozzi et al., J. Chem. Phys. 152 154105 (2020);
          URL http://www.quantum-espresso.org", 
     in publications or presentations arising from this work. More details at
     http://www.quantum-espresso.org/quote

     Serial version
     8861 MiB available memory on the printing compute node when the environment starts

     Waiting for input...
     Reading input from standard input

     Current dimensions of program PWSCF are:
     Max number of different atomic species (ntypx) = 10
     Max number of k-points (npk) =  40000
     Max angular momentum in pseudopotentials (lmaxx) =  4


     G-vector sticks info
     --------------------
     sticks:   dense  smooth     PW     G-vecs:    dense   smooth      PW
     Sum         757     757    235                13731    13731    2277

     Using Slab Decomposition



     bravais-lattice index     =            2
     lattice parameter (alat)  =      10.4684  a.u.
     unit-cell volume          =     286.7982 (a.u.)^3
     number of atoms/cell      =            2
     number of atomic types    =            1
     number of electrons       =         8.00
     number of Kohn-Sham states=            4
     kinetic-energy cutoff     =      50.0000  Ry
     charge density cutoff     =     200.0000  Ry
     scf convergence threshold =      1.0E-08
     mixing beta               =       0.7000
     number of iterations used =            8  plain     mixing
     Exchange-correlation= PBE
                           (   1   4   3   4   0   0   0)

     celldm(1)=  10.468364  celldm(2)=   0.000000  celldm(3)=   0.000000
     celldm(4)=   0.000000  celldm(5)=   0.000000  celldm(6)=   0.000000

     crystal axes: (cart. coord. in units of alat)
               a(1) = (  -0.500000   0.000000   0.500000 )  
               a(2) = (   0.000000   0.500000   0.500000 )  
               a(3) = (  -0.500000   0.500000   0.000000 )  

     reciprocal axes: (cart. coord. in units 2 pi/alat)
               b(1) = ( -1.000000 -1.000000  1.000000 )  
               b(2) = (  1.000000  1.000000  1.000000 )  
               b(3) = ( -1.000000  1.000000 -1.000000 )  


     PseudoPot. # 1 for Si read from file:
     /home/paolo/project_labqsm/pseudopotentials/Si_ONCV_PBE-1.2.upf
     MD5 check sum: 7f029a58b69e3aa87b46a36c608bf45e
     Pseudo is Norm-conserving, Zval =  4.0
     Generated using ONCVPSP code by D. R. Hamann
     Using radial grid of  602 points,  4 beta functions with: 
                l(1) =   0
                l(2) =   0
                l(3) =   1
                l(4) =   1

     atomic species   valence    mass     pseudopotential
        Si             4.00    28.08500     Si( 1.00)

     48 Sym. Ops., with inversion, found (24 have fractional translation)



   Cartesian axes

     site n.     atom                  positions (alat units)
         1           Si  tau(   1) = (   0.0000000   0.0000000   0.0000000  )
         2           Si  tau(   2) = (   0.2500000   0.2500000   0.2500000  )

     number of k points=    29
                       cart. coord. in units 2pi/alat
        k(    1) = (   0.0000000   0.0000000   0.0000000), wk =   0.0039062
        k(    2) = (  -0.1250000   0.1250000  -0.1250000), wk =   0.0312500
        k(    3) = (  -0.2500000   0.2500000  -0.2500000), wk =   0.0312500
        k(    4) = (  -0.3750000   0.3750000  -0.3750000), wk =   0.0312500
        k(    5) = (   0.5000000  -0.5000000   0.5000000), wk =   0.0156250
        k(    6) = (   0.0000000   0.2500000   0.0000000), wk =   0.0234375
        k(    7) = (  -0.1250000   0.3750000  -0.1250000), wk =   0.0937500
        k(    8) = (  -0.2500000   0.5000000  -0.2500000), wk =   0.0937500
        k(    9) = (   0.6250000  -0.3750000   0.6250000), wk =   0.0937500
        k(   10) = (   0.5000000  -0.2500000   0.5000000), wk =   0.0937500
        k(   11) = (   0.3750000  -0.1250000   0.3750000), wk =   0.0937500
        k(   12) = (   0.2500000   0.0000000   0.2500000), wk =   0.0468750
        k(   13) = (   0.0000000   0.5000000   0.0000000), wk =   0.0234375
        k(   14) = (  -0.1250000   0.6250000  -0.1250000), wk =   0.0937500
        k(   15) = (   0.7500000  -0.2500000   0.7500000), wk =   0.0937500
        k(   16) = (   0.6250000  -0.1250000   0.6250000), wk =   0.0937500
        k(   17) = (   0.5000000   0.0000000   0.5000000), wk =   0.0468750
        k(   18) = (   0.0000000   0.7500000   0.0000000), wk =   0.0234375
        k(   19) = (   0.8750000  -0.1250000   0.8750000), wk =   0.0937500
        k(   20) = (   0.7500000   0.0000000   0.7500000), wk =   0.0468750
        k(   21) = (   0.0000000  -1.0000000   0.0000000), wk =   0.0117188
        k(   22) = (  -0.2500000   0.5000000   0.0000000), wk =   0.0937500
        k(   23) = (   0.6250000  -0.3750000   0.8750000), wk =   0.1875000
        k(   24) = (   0.5000000  -0.2500000   0.7500000), wk =   0.0937500
        k(   25) = (   0.7500000  -0.2500000   1.0000000), wk =   0.0937500
        k(   26) = (   0.6250000  -0.1250000   0.8750000), wk =   0.1875000
        k(   27) = (   0.5000000   0.0000000   0.7500000), wk =   0.0937500
        k(   28) = (  -0.2500000  -1.0000000   0.0000000), wk =   0.0468750
        k(   29) = (  -0.5000000  -1.0000000   0.0000000), wk =   0.0234375

     Dense  grid:    13731 G-vectors     FFT dimensions: (  36,  36,  36)

     Estimated max dynamical RAM per process >      13.21 MB

     Initial potential from superposition of free atoms

     starting charge       7.9075, renormalised to       8.0000
     Starting wfcs are random

     total cpu time spent up to now is        0.2 secs

     Self-consistent Calculation

     iteration #  1     ecut=    50.00 Ry     beta= 0.70
     Davidson diagonalization with overlap
     ethr =  1.00E-02,  avg # of iterations =  8.1

     Threshold (ethr) on eigenvalues was too large:
     Diagonalizing with lowered threshold

     Davidson diagonalization with overlap
     ethr =  5.46E-04,  avg # of iterations =  3.5

     total cpu time spent up to now is        1.2 secs

     total energy              =     -15.76237182 Ry
     estimated scf accuracy    <       0.04777021 Ry

     iteration #  2     ecut=    50.00 Ry     beta= 0.70
     Davidson diagonalization with overlap
     ethr =  5.97E-04,  avg # of iterations =  1.0

     total cpu time spent up to now is        1.5 secs

     total energy              =     -15.76455346 Ry
     estimated scf accuracy    <       0.00236371 Ry

     iteration #  3     ecut=    50.00 Ry     beta= 0.70
     Davidson diagonalization with overlap
     ethr =  2.95E-05,  avg # of iterations =  3.2

     total cpu time spent up to now is        1.8 secs

     total energy              =     -15.76533134 Ry
     estimated scf accuracy    <       0.00004307 Ry

     iteration #  4     ecut=    50.00 Ry     beta= 0.70
     Davidson diagonalization with overlap
     ethr =  5.38E-07,  avg # of iterations =  5.2

     total cpu time spent up to now is        2.3 secs

     total energy              =     -15.76538451 Ry
     estimated scf accuracy    <       0.00000020 Ry

     iteration #  5     ecut=    50.00 Ry     beta= 0.70
     Davidson diagonalization with overlap
     ethr =  2.56E-09,  avg # of iterations =  5.7

     total cpu time spent up to now is        2.8 secs

     End of self-consistent calculation

          k = 0.0000 0.0000 0.0000 (  1687 PWs)   bands (ev):

    -5.9414   5.6178   5.6178   5.6178

          k =-0.1250 0.1250-0.1250 (  1726 PWs)   bands (ev):

    -5.7477   4.0310   5.3474   5.3474

          k =-0.2500 0.2500-0.2500 (  1724 PWs)   bands (ev):

    -5.1839   1.7940   4.9003   4.9003

          k =-0.3750 0.3750-0.3750 (  1706 PWs)   bands (ev):

    -4.3444  -0.1256   4.5863   4.5863

          k = 0.5000-0.5000 0.5000 (  1718 PWs)   bands (ev):

    -3.7583  -1.0801   4.4783   4.4783

          k = 0.0000 0.2500 0.0000 (  1720 PWs)   bands (ev):

    -5.6824   4.2196   4.8674   4.8674

          k =-0.1250 0.3750-0.1250 (  1718 PWs)   bands (ev):

    -5.2382   2.4325   4.3826   4.4226

          k =-0.2500 0.5000-0.2500 (  1713 PWs)   bands (ev):

    -4.4696   0.4815   3.8532   4.1243

          k = 0.6250-0.3750 0.6250 (  1715 PWs)   bands (ev):

    -3.6710  -0.8894   3.4316   4.1423

          k = 0.5000-0.2500 0.5000 (  1715 PWs)   bands (ev):

    -3.8953  -0.5450   3.2683   4.4187

          k = 0.3750-0.1250 0.3750 (  1710 PWs)   bands (ev):

    -4.7581   1.1042   3.4290   4.8809

          k = 0.2500 0.0000 0.2500 (  1727 PWs)   bands (ev):

    -5.4290   2.9484   4.0979   5.3348

          k = 0.0000 0.5000 0.0000 (  1716 PWs)   bands (ev):

    -4.9148   2.0845   3.8439   3.8439

          k =-0.1250 0.6250-0.1250 (  1707 PWs)   bands (ev):

    -4.2430   0.7366   3.1028   3.5405

          k = 0.7500-0.2500 0.7500 (  1719 PWs)   bands (ev):

    -3.3762  -0.6110   2.2817   3.5406

          k = 0.6250-0.1250 0.6250 (  1716 PWs)   bands (ev):

    -3.1916  -0.8460   1.8541   3.8390

          k = 0.5000 0.0000 0.5000 (  1718 PWs)   bands (ev):

    -4.0101   0.2407   2.0955   4.3630

          k = 0.0000 0.7500 0.0000 (  1712 PWs)   bands (ev):

    -3.6703  -0.0461   3.1630   3.1630

          k = 0.8750-0.1250 0.8750 (  1707 PWs)   bands (ev):

    -2.8236  -1.0787   2.3970   3.0897

          k = 0.7500 0.0000 0.7500 (  1710 PWs)   bands (ev):

    -2.4277  -1.4436   1.5955   3.3323

          k = 0.0000-1.0000 0.0000 (  1724 PWs)   bands (ev):

    -2.0119  -2.0119   2.9292   2.9292

          k =-0.2500 0.5000 0.0000 (  1705 PWs)   bands (ev):

    -4.6818   1.3760   3.0731   4.2673

          k = 0.6250-0.3750 0.8750 (  1711 PWs)   bands (ev):

    -3.8465  -0.0854   2.4763   3.8050

          k = 0.5000-0.2500 0.7500 (  1704 PWs)   bands (ev):

    -3.2447  -0.9593   2.3403   3.5939

          k = 0.7500-0.2500 1.0000 (  1706 PWs)   bands (ev):

    -3.4864  -0.2543   2.4614   3.0342

          k = 0.6250-0.1250 0.8750 (  1706 PWs)   bands (ev):

    -2.6709  -1.1677   1.8124   2.8466

          k = 0.5000 0.0000 0.7500 (  1714 PWs)   bands (ev):

    -3.0020  -0.8196   1.6577   3.1967

          k =-0.2500-1.0000 0.0000 (  1702 PWs)   bands (ev):

    -1.9455  -1.9455   2.4158   2.4158

          k =-0.5000-1.0000 0.0000 (  1708 PWs)   bands (ev):

    -1.8734  -1.8734   2.0178   2.0178

     highest occupied level (ev):     5.6178

!    total energy              =     -15.76538531 Ry
     estimated scf accuracy    <          7.0E-09 Ry

     The total energy is the sum of the following terms:
     one-electron contribution =       4.30107274 Ry
     hartree contribution      =       1.15448071 Ry
     xc contribution           =      -4.75441737 Ry
     ewald contribution        =     -16.46652139 Ry

     convergence has been achieved in   5 iterations

     Writing all to output data dir ./SCRATCH/silicon.save/

     init_run     :      0.14s CPU      0.15s WALL (       1 calls)
     electrons    :      2.48s CPU      2.62s WALL (       1 calls)

     Called by init_run:
     wfcinit      :      0.11s CPU      0.10s WALL (       1 calls)
     potinit      :      0.00s CPU      0.03s WALL (       1 calls)
     hinit0       :      0.02s CPU      0.02s WALL (       1 calls)

     Called by electrons:
     c_bands      :      2.19s CPU      2.26s WALL (       6 calls)
     sum_band     :      0.23s CPU      0.26s WALL (       6 calls)
     v_of_rho     :      0.05s CPU      0.10s WALL (       6 calls)
     mix_rho      :      0.02s CPU      0.01s WALL (       6 calls)

     Called by c_bands:
     init_us_2    :      0.03s CPU      0.07s WALL (     377 calls)
     init_us_2:cp :      0.03s CPU      0.07s WALL (     377 calls)
     cegterg      :      2.14s CPU      2.16s WALL (     174 calls)

     Called by *egterg:
     cdiaghg      :      0.02s CPU      0.02s WALL (     924 calls)
     h_psi        :      2.08s CPU      2.04s WALL (     982 calls)
     g_psi        :      0.02s CPU      0.01s WALL (     779 calls)

     Called by h_psi:
     h_psi:calbec :      0.05s CPU      0.09s WALL (     982 calls)
     vloc_psi     :      1.98s CPU      1.86s WALL (     982 calls)
     add_vuspsi   :      0.03s CPU      0.07s WALL (     982 calls)

     General routines
     calbec       :      0.05s CPU      0.09s WALL (     982 calls)
     fft          :      0.02s CPU      0.03s WALL (      60 calls)
     ffts         :      0.02s CPU      0.00s WALL (       6 calls)
     fftw         :      1.94s CPU      1.86s WALL (    6694 calls)


     PWSCF        :      2.62s CPU      2.79s WALL


   This run was terminated on:  11:34:31   9Jun2024            

=------------------------------------------------------------------------------=
   JOB DONE.
=------------------------------------------------------------------------------=
