
     Program PWSCF v.7.2 starts on  9Jun2024 at 11:33:54 

     This program is part of the open-source Quantum ESPRESSO suite
     for quantum simulation of materials; please cite
         "P. Giannozzi et al., J. Phys.:Condens. Matter 21 395502 (2009);
         "P. Giannozzi et al., J. Phys.:Condens. Matter 29 465901 (2017);
         "P. Giannozzi et al., J. Chem. Phys. 152 154105 (2020);
          URL http://www.quantum-espresso.org", 
     in publications or presentations arising from this work. More details at
     http://www.quantum-espresso.org/quote

     Serial version
     8823 MiB available memory on the printing compute node when the environment starts

     Waiting for input...
     Reading input from standard input

     Current dimensions of program PWSCF are:
     Max number of different atomic species (ntypx) = 10
     Max number of k-points (npk) =  40000
     Max angular momentum in pseudopotentials (lmaxx) =  4


     G-vector sticks info
     --------------------
     sticks:   dense  smooth     PW     G-vecs:    dense   smooth      PW
     Sum        1459    1459    421                36613    36613    5769

     Using Slab Decomposition



     bravais-lattice index     =            2
     lattice parameter (alat)  =      10.2631  a.u.
     unit-cell volume          =     270.2564 (a.u.)^3
     number of atoms/cell      =            2
     number of atomic types    =            1
     number of electrons       =         8.00
     number of Kohn-Sham states=            4
     kinetic-energy cutoff     =     100.0000  Ry
     charge density cutoff     =     400.0000  Ry
     scf convergence threshold =      1.0E-08
     mixing beta               =       0.7000
     number of iterations used =            8  plain     mixing
     Exchange-correlation= PBE
                           (   1   4   3   4   0   0   0)

     celldm(1)=  10.263102  celldm(2)=   0.000000  celldm(3)=   0.000000
     celldm(4)=   0.000000  celldm(5)=   0.000000  celldm(6)=   0.000000

     crystal axes: (cart. coord. in units of alat)
               a(1) = (  -0.500000   0.000000   0.500000 )  
               a(2) = (   0.000000   0.500000   0.500000 )  
               a(3) = (  -0.500000   0.500000   0.000000 )  

     reciprocal axes: (cart. coord. in units 2 pi/alat)
               b(1) = ( -1.000000 -1.000000  1.000000 )  
               b(2) = (  1.000000  1.000000  1.000000 )  
               b(3) = ( -1.000000  1.000000 -1.000000 )  


     PseudoPot. # 1 for Si read from file:
     /home/paolo/project_labqsm/pseudopotentials/Si_ONCV_PBE-1.2.upf
     MD5 check sum: 7f029a58b69e3aa87b46a36c608bf45e
     Pseudo is Norm-conserving, Zval =  4.0
     Generated using ONCVPSP code by D. R. Hamann
     Using radial grid of  602 points,  4 beta functions with: 
                l(1) =   0
                l(2) =   0
                l(3) =   1
                l(4) =   1

     atomic species   valence    mass     pseudopotential
        Si             4.00    28.08500     Si( 1.00)

     48 Sym. Ops., with inversion, found (24 have fractional translation)



   Cartesian axes

     site n.     atom                  positions (alat units)
         1           Si  tau(   1) = (   0.0000000   0.0000000   0.0000000  )
         2           Si  tau(   2) = (   0.2500000   0.2500000   0.2500000  )

     number of k points=    29
                       cart. coord. in units 2pi/alat
        k(    1) = (   0.0000000   0.0000000   0.0000000), wk =   0.0039062
        k(    2) = (  -0.1250000   0.1250000  -0.1250000), wk =   0.0312500
        k(    3) = (  -0.2500000   0.2500000  -0.2500000), wk =   0.0312500
        k(    4) = (  -0.3750000   0.3750000  -0.3750000), wk =   0.0312500
        k(    5) = (   0.5000000  -0.5000000   0.5000000), wk =   0.0156250
        k(    6) = (   0.0000000   0.2500000   0.0000000), wk =   0.0234375
        k(    7) = (  -0.1250000   0.3750000  -0.1250000), wk =   0.0937500
        k(    8) = (  -0.2500000   0.5000000  -0.2500000), wk =   0.0937500
        k(    9) = (   0.6250000  -0.3750000   0.6250000), wk =   0.0937500
        k(   10) = (   0.5000000  -0.2500000   0.5000000), wk =   0.0937500
        k(   11) = (   0.3750000  -0.1250000   0.3750000), wk =   0.0937500
        k(   12) = (   0.2500000   0.0000000   0.2500000), wk =   0.0468750
        k(   13) = (   0.0000000   0.5000000   0.0000000), wk =   0.0234375
        k(   14) = (  -0.1250000   0.6250000  -0.1250000), wk =   0.0937500
        k(   15) = (   0.7500000  -0.2500000   0.7500000), wk =   0.0937500
        k(   16) = (   0.6250000  -0.1250000   0.6250000), wk =   0.0937500
        k(   17) = (   0.5000000   0.0000000   0.5000000), wk =   0.0468750
        k(   18) = (   0.0000000   0.7500000   0.0000000), wk =   0.0234375
        k(   19) = (   0.8750000  -0.1250000   0.8750000), wk =   0.0937500
        k(   20) = (   0.7500000   0.0000000   0.7500000), wk =   0.0468750
        k(   21) = (   0.0000000  -1.0000000   0.0000000), wk =   0.0117188
        k(   22) = (  -0.2500000   0.5000000   0.0000000), wk =   0.0937500
        k(   23) = (   0.6250000  -0.3750000   0.8750000), wk =   0.1875000
        k(   24) = (   0.5000000  -0.2500000   0.7500000), wk =   0.0937500
        k(   25) = (   0.7500000  -0.2500000   1.0000000), wk =   0.0937500
        k(   26) = (   0.6250000  -0.1250000   0.8750000), wk =   0.1875000
        k(   27) = (   0.5000000   0.0000000   0.7500000), wk =   0.0937500
        k(   28) = (  -0.2500000  -1.0000000   0.0000000), wk =   0.0468750
        k(   29) = (  -0.5000000  -1.0000000   0.0000000), wk =   0.0234375

     Dense  grid:    36613 G-vectors     FFT dimensions: (  48,  48,  48)

     Estimated max dynamical RAM per process >      33.87 MB

     Initial potential from superposition of free atoms

     starting charge       7.9075, renormalised to       8.0000
     Starting wfcs are random

     total cpu time spent up to now is        0.4 secs

     Self-consistent Calculation

     iteration #  1     ecut=   100.00 Ry     beta= 0.70
     Davidson diagonalization with overlap
     ethr =  1.00E-02,  avg # of iterations =  8.6

     Threshold (ethr) on eigenvalues was too large:
     Diagonalizing with lowered threshold

     Davidson diagonalization with overlap
     ethr =  5.92E-04,  avg # of iterations =  3.0

     total cpu time spent up to now is        3.4 secs

     total energy              =     -15.76272136 Ry
     estimated scf accuracy    <       0.05231667 Ry

     iteration #  2     ecut=   100.00 Ry     beta= 0.70
     Davidson diagonalization with overlap
     ethr =  6.54E-04,  avg # of iterations =  1.0

     total cpu time spent up to now is        4.1 secs

     total energy              =     -15.76513400 Ry
     estimated scf accuracy    <       0.00238560 Ry

     iteration #  3     ecut=   100.00 Ry     beta= 0.70
     Davidson diagonalization with overlap
     ethr =  2.98E-05,  avg # of iterations =  3.4

     total cpu time spent up to now is        5.1 secs

     total energy              =     -15.76580328 Ry
     estimated scf accuracy    <       0.00004186 Ry

     iteration #  4     ecut=   100.00 Ry     beta= 0.70
     Davidson diagonalization with overlap
     ethr =  5.23E-07,  avg # of iterations =  4.7

     total cpu time spent up to now is        6.4 secs

     total energy              =     -15.76584405 Ry
     estimated scf accuracy    <       0.00000032 Ry

     iteration #  5     ecut=   100.00 Ry     beta= 0.70
     Davidson diagonalization with overlap
     ethr =  4.04E-09,  avg # of iterations =  5.5

     total cpu time spent up to now is        7.8 secs

     total energy              =     -15.76584491 Ry
     estimated scf accuracy    <       0.00000001 Ry

     iteration #  6     ecut=   100.00 Ry     beta= 0.70
     Davidson diagonalization with overlap
     ethr =  1.29E-10,  avg # of iterations =  4.0

     total cpu time spent up to now is        8.9 secs

     End of self-consistent calculation

          k = 0.0000 0.0000 0.0000 (  4573 PWs)   bands (ev):

    -5.7353   6.2210   6.2210   6.2210

          k =-0.1250 0.1250-0.1250 (  4579 PWs)   bands (ev):

    -5.5313   4.6230   5.9342   5.9342

          k =-0.2500 0.2500-0.2500 (  4576 PWs)   bands (ev):

    -4.9362   2.2969   5.4667   5.4667

          k =-0.3750 0.3750-0.3750 (  4567 PWs)   bands (ev):

    -4.0433   0.2785   5.1419   5.1419

          k = 0.5000-0.5000 0.5000 (  4584 PWs)   bands (ev):

    -3.4063  -0.7429   5.0309   5.0309

          k = 0.0000 0.2500 0.0000 (  4577 PWs)   bands (ev):

    -5.4625   4.8845   5.4186   5.4186

          k =-0.1250 0.3750-0.1250 (  4578 PWs)   bands (ev):

    -4.9942   2.9981   4.9093   4.9822

          k =-0.2500 0.5000-0.2500 (  4583 PWs)   bands (ev):

    -4.1800   0.9398   4.3916   4.6429

          k = 0.6250-0.3750 0.6250 (  4547 PWs)   bands (ev):

    -3.3195  -0.5221   3.9469   4.6680

          k = 0.5000-0.2500 0.5000 (  4563 PWs)   bands (ev):

    -3.5637  -0.1519   3.7656   4.9638

          k = 0.3750-0.1250 0.3750 (  4579 PWs)   bands (ev):

    -4.4860   1.5984   3.9165   5.4533

          k = 0.2500 0.0000 0.2500 (  4561 PWs)   bands (ev):

    -5.1953   3.5377   4.5982   5.9314

          k = 0.0000 0.5000 0.0000 (  4584 PWs)   bands (ev):

    -4.6541   2.7025   4.3400   4.3400

          k =-0.1250 0.6250-0.1250 (  4574 PWs)   bands (ev):

    -3.9446   1.2811   3.5586   4.0232

          k = 0.7500-0.2500 0.7500 (  4560 PWs)   bands (ev):

    -3.0194  -0.1589   2.6945   4.0268

          k = 0.6250-0.1250 0.6250 (  4555 PWs)   bands (ev):

    -2.8155  -0.4168   2.2363   4.3446

          k = 0.5000 0.0000 0.5000 (  4564 PWs)   bands (ev):

    -3.6931   0.7427   2.4768   4.9016

          k = 0.0000 0.7500 0.0000 (  4572 PWs)   bands (ev):

    -3.3424   0.4766   3.6260   3.6260

          k = 0.8750-0.1250 0.8750 (  4561 PWs)   bands (ev):

    -2.4457  -0.6076   2.7955   3.5503

          k = 0.7500 0.0000 0.7500 (  4538 PWs)   bands (ev):

    -2.0077  -1.0036   1.9290   3.8073

          k = 0.0000-1.0000 0.0000 (  4568 PWs)   bands (ev):

    -1.5935  -1.5935   3.3812   3.3812

          k =-0.2500 0.5000 0.0000 (  4563 PWs)   bands (ev):

    -4.4069   1.9325   3.5159   4.8003

          k = 0.6250-0.3750 0.8750 (  4567 PWs)   bands (ev):

    -3.5193   0.3824   2.9074   4.3003

          k = 0.5000-0.2500 0.7500 (  4546 PWs)   bands (ev):

    -2.8678  -0.5614   2.7780   4.0713

          k = 0.7500-0.2500 1.0000 (  4586 PWs)   bands (ev):

    -3.1440   0.2580   2.8683   3.4717

          k = 0.6250-0.1250 0.8750 (  4555 PWs)   bands (ev):

    -2.2701  -0.7091   2.1699   3.2709

          k = 0.5000 0.0000 0.7500 (  4543 PWs)   bands (ev):

    -2.6205  -0.3460   2.0030   3.6463

          k =-0.2500-1.0000 0.0000 (  4568 PWs)   bands (ev):

    -1.5158  -1.5158   2.8147   2.8147

          k =-0.5000-1.0000 0.0000 (  4540 PWs)   bands (ev):

    -1.4302  -1.4302   2.3781   2.3781

     highest occupied level (ev):     6.2210

!    total energy              =     -15.76584492 Ry
     estimated scf accuracy    <          1.0E-09 Ry

     The total energy is the sum of the following terms:
     one-electron contribution =       4.74324934 Ry
     hartree contribution      =       1.10237282 Ry
     xc contribution           =      -4.81561529 Ry
     ewald contribution        =     -16.79585178 Ry

     convergence has been achieved in   6 iterations

     Writing all to output data dir ./SCRATCH/silicon.save/

     init_run     :      0.34s CPU      0.40s WALL (       1 calls)
     electrons    :      8.36s CPU      8.50s WALL (       1 calls)

     Called by init_run:
     wfcinit      :      0.27s CPU      0.28s WALL (       1 calls)
     potinit      :      0.05s CPU      0.06s WALL (       1 calls)
     hinit0       :      0.02s CPU      0.03s WALL (       1 calls)

     Called by electrons:
     c_bands      :      7.22s CPU      7.34s WALL (       7 calls)
     sum_band     :      0.86s CPU      0.88s WALL (       7 calls)
     v_of_rho     :      0.25s CPU      0.29s WALL (       7 calls)
     mix_rho      :      0.02s CPU      0.03s WALL (       7 calls)

     Called by c_bands:
     init_us_2    :      0.19s CPU      0.20s WALL (     435 calls)
     init_us_2:cp :      0.19s CPU      0.20s WALL (     435 calls)
     cegterg      :      6.95s CPU      7.07s WALL (     203 calls)

     Called by *egterg:
     cdiaghg      :      0.03s CPU      0.02s WALL (    1053 calls)
     h_psi        :      6.58s CPU      6.75s WALL (    1111 calls)
     g_psi        :      0.05s CPU      0.03s WALL (     879 calls)

     Called by h_psi:
     h_psi:calbec :      0.23s CPU      0.27s WALL (    1111 calls)
     vloc_psi     :      6.11s CPU      6.26s WALL (    1111 calls)
     add_vuspsi   :      0.20s CPU      0.19s WALL (    1111 calls)

     General routines
     calbec       :      0.23s CPU      0.26s WALL (    1111 calls)
     fft          :      0.08s CPU      0.10s WALL (      70 calls)
     ffts         :      0.02s CPU      0.01s WALL (       7 calls)
     fftw         :      6.34s CPU      6.41s WALL (    7632 calls)


     PWSCF        :      8.73s CPU      8.93s WALL


   This run was terminated on:  11:34: 3   9Jun2024            

=------------------------------------------------------------------------------=
   JOB DONE.
=------------------------------------------------------------------------------=
