
     Program PWSCF v.7.2 starts on 12May2024 at 12: 4:34 

     This program is part of the open-source Quantum ESPRESSO suite
     for quantum simulation of materials; please cite
         "P. Giannozzi et al., J. Phys.:Condens. Matter 21 395502 (2009);
         "P. Giannozzi et al., J. Phys.:Condens. Matter 29 465901 (2017);
         "P. Giannozzi et al., J. Chem. Phys. 152 154105 (2020);
          URL http://www.quantum-espresso.org", 
     in publications or presentations arising from this work. More details at
     http://www.quantum-espresso.org/quote

     Serial version
     8864 MiB available memory on the printing compute node when the environment starts

     Waiting for input...
     Reading input from standard input

     Current dimensions of program PWSCF are:
     Max number of different atomic species (ntypx) = 10
     Max number of k-points (npk) =  40000
     Max angular momentum in pseudopotentials (lmaxx) =  4


     G-vector sticks info
     --------------------
     sticks:   dense  smooth     PW     G-vecs:    dense   smooth      PW
     Sum        1159    1159    349                26229    26229    4279

     Using Slab Decomposition



     bravais-lattice index     =            2
     lattice parameter (alat)  =      10.2631  a.u.
     unit-cell volume          =     270.2564 (a.u.)^3
     number of atoms/cell      =            2
     number of atomic types    =            1
     number of electrons       =         8.00
     number of Kohn-Sham states=            4
     kinetic-energy cutoff     =      80.0000  Ry
     charge density cutoff     =     320.0000  Ry
     scf convergence threshold =      1.0E-08
     mixing beta               =       0.7000
     number of iterations used =            8  plain     mixing
     Exchange-correlation=  SLA  PZ   NOGX NOGC
                           (   1   1   0   0   0   0   0)

     celldm(1)=  10.263102  celldm(2)=   0.000000  celldm(3)=   0.000000
     celldm(4)=   0.000000  celldm(5)=   0.000000  celldm(6)=   0.000000

     crystal axes: (cart. coord. in units of alat)
               a(1) = (  -0.500000   0.000000   0.500000 )  
               a(2) = (   0.000000   0.500000   0.500000 )  
               a(3) = (  -0.500000   0.500000   0.000000 )  

     reciprocal axes: (cart. coord. in units 2 pi/alat)
               b(1) = ( -1.000000 -1.000000  1.000000 )  
               b(2) = (  1.000000  1.000000  1.000000 )  
               b(3) = ( -1.000000  1.000000 -1.000000 )  


     PseudoPot. # 1 for Si read from file:
     /home/paolo/project_labqsm/pseudopotentials/Si.pz-vbc.UPF
     MD5 check sum: dc3b11d017da532b29132e08c0a6883c
     Pseudo is Norm-conserving, Zval =  4.0
     Generated by new atomic code, or converted to UPF format
     Using radial grid of  431 points,  2 beta functions with: 
                l(1) =   0
                l(2) =   1

     atomic species   valence    mass     pseudopotential
        Si             4.00    12.01100     Si( 1.00)

     48 Sym. Ops., with inversion, found (24 have fractional translation)



   Cartesian axes

     site n.     atom                  positions (alat units)
         1           Si  tau(   1) = (   0.0000000   0.0000000   0.0000000  )
         2           Si  tau(   2) = (   0.2500000   0.2500000   0.2500000  )

     number of k points=    29
                       cart. coord. in units 2pi/alat
        k(    1) = (   0.0000000   0.0000000   0.0000000), wk =   0.0039062
        k(    2) = (  -0.1250000   0.1250000  -0.1250000), wk =   0.0312500
        k(    3) = (  -0.2500000   0.2500000  -0.2500000), wk =   0.0312500
        k(    4) = (  -0.3750000   0.3750000  -0.3750000), wk =   0.0312500
        k(    5) = (   0.5000000  -0.5000000   0.5000000), wk =   0.0156250
        k(    6) = (   0.0000000   0.2500000   0.0000000), wk =   0.0234375
        k(    7) = (  -0.1250000   0.3750000  -0.1250000), wk =   0.0937500
        k(    8) = (  -0.2500000   0.5000000  -0.2500000), wk =   0.0937500
        k(    9) = (   0.6250000  -0.3750000   0.6250000), wk =   0.0937500
        k(   10) = (   0.5000000  -0.2500000   0.5000000), wk =   0.0937500
        k(   11) = (   0.3750000  -0.1250000   0.3750000), wk =   0.0937500
        k(   12) = (   0.2500000   0.0000000   0.2500000), wk =   0.0468750
        k(   13) = (   0.0000000   0.5000000   0.0000000), wk =   0.0234375
        k(   14) = (  -0.1250000   0.6250000  -0.1250000), wk =   0.0937500
        k(   15) = (   0.7500000  -0.2500000   0.7500000), wk =   0.0937500
        k(   16) = (   0.6250000  -0.1250000   0.6250000), wk =   0.0937500
        k(   17) = (   0.5000000   0.0000000   0.5000000), wk =   0.0468750
        k(   18) = (   0.0000000   0.7500000   0.0000000), wk =   0.0234375
        k(   19) = (   0.8750000  -0.1250000   0.8750000), wk =   0.0937500
        k(   20) = (   0.7500000   0.0000000   0.7500000), wk =   0.0468750
        k(   21) = (   0.0000000  -1.0000000   0.0000000), wk =   0.0117188
        k(   22) = (  -0.2500000   0.5000000   0.0000000), wk =   0.0937500
        k(   23) = (   0.6250000  -0.3750000   0.8750000), wk =   0.1875000
        k(   24) = (   0.5000000  -0.2500000   0.7500000), wk =   0.0937500
        k(   25) = (   0.7500000  -0.2500000   1.0000000), wk =   0.0937500
        k(   26) = (   0.6250000  -0.1250000   0.8750000), wk =   0.1875000
        k(   27) = (   0.5000000   0.0000000   0.7500000), wk =   0.0937500
        k(   28) = (  -0.2500000  -1.0000000   0.0000000), wk =   0.0468750
        k(   29) = (  -0.5000000  -1.0000000   0.0000000), wk =   0.0234375

     Dense  grid:    26229 G-vectors     FFT dimensions: (  48,  48,  48)

     Estimated max dynamical RAM per process >      25.80 MB

     Initial potential from superposition of free atoms

     starting charge       7.9990, renormalised to       8.0000
     Starting wfcs are    8 randomized atomic wfcs

     total cpu time spent up to now is        0.6 secs

     Self-consistent Calculation

     iteration #  1     ecut=    80.00 Ry     beta= 0.70
     Davidson diagonalization with overlap
     ethr =  1.00E-02,  avg # of iterations =  2.0

     Threshold (ethr) on eigenvalues was too large:
     Diagonalizing with lowered threshold

     Davidson diagonalization with overlap
     ethr =  6.71E-04,  avg # of iterations =  1.2

     total cpu time spent up to now is        2.0 secs

     total energy              =     -15.84961736 Ry
     estimated scf accuracy    <       0.05911113 Ry

     iteration #  2     ecut=    80.00 Ry     beta= 0.70
     Davidson diagonalization with overlap
     ethr =  7.39E-04,  avg # of iterations =  1.0

     total cpu time spent up to now is        2.5 secs

     total energy              =     -15.85263177 Ry
     estimated scf accuracy    <       0.00222427 Ry

     iteration #  3     ecut=    80.00 Ry     beta= 0.70
     Davidson diagonalization with overlap
     ethr =  2.78E-05,  avg # of iterations =  2.3

     total cpu time spent up to now is        3.3 secs

     total energy              =     -15.85309887 Ry
     estimated scf accuracy    <       0.00007179 Ry

     iteration #  4     ecut=    80.00 Ry     beta= 0.70
     Davidson diagonalization with overlap
     ethr =  8.97E-07,  avg # of iterations =  2.8

     total cpu time spent up to now is        4.1 secs

     total energy              =     -15.85312873 Ry
     estimated scf accuracy    <       0.00000261 Ry

     iteration #  5     ecut=    80.00 Ry     beta= 0.70
     Davidson diagonalization with overlap
     ethr =  3.26E-08,  avg # of iterations =  3.6

     total cpu time spent up to now is        5.1 secs

     total energy              =     -15.85313035 Ry
     estimated scf accuracy    <       0.00000009 Ry

     iteration #  6     ecut=    80.00 Ry     beta= 0.70
     Davidson diagonalization with overlap
     ethr =  1.08E-09,  avg # of iterations =  3.8

     total cpu time spent up to now is        6.1 secs

     End of self-consistent calculation

          k = 0.0000 0.0000 0.0000 (  3287 PWs)   bands (ev):

    -5.8879   6.0370   6.0370   6.0370

          k =-0.1250 0.1250-0.1250 (  3278 PWs)   bands (ev):

    -5.6838   4.4414   5.7487   5.7487

          k =-0.2500 0.2500-0.2500 (  3275 PWs)   bands (ev):

    -5.0876   2.1167   5.2786   5.2786

          k =-0.3750 0.3750-0.3750 (  3272 PWs)   bands (ev):

    -4.1902   0.0946   4.9517   4.9517

          k = 0.5000-0.5000 0.5000 (  3274 PWs)   bands (ev):

    -3.5444  -0.9355   4.8398   4.8398

          k = 0.0000 0.2500 0.0000 (  3271 PWs)   bands (ev):

    -5.6150   4.7094   5.2312   5.2312

          k =-0.1250 0.3750-0.1250 (  3274 PWs)   bands (ev):

    -5.1461   2.8241   4.7192   4.7938

          k =-0.2500 0.5000-0.2500 (  3284 PWs)   bands (ev):

    -4.3292   0.7630   4.2011   4.4510

          k = 0.6250-0.3750 0.6250 (  3263 PWs)   bands (ev):

    -3.4601  -0.7079   3.7548   4.4757

          k = 0.5000-0.2500 0.5000 (  3265 PWs)   bands (ev):

    -3.7077  -0.3341   3.5720   4.7728

          k = 0.3750-0.1250 0.3750 (  3273 PWs)   bands (ev):

    -4.6364   1.4233   3.7214   5.2647

          k = 0.2500 0.0000 0.2500 (  3279 PWs)   bands (ev):

    -5.3474   3.3636   4.4038   5.7453

          k = 0.0000 0.5000 0.0000 (  3263 PWs)   bands (ev):

    -4.8060   2.5427   4.1471   4.1471

          k =-0.1250 0.6250-0.1250 (  3268 PWs)   bands (ev):

    -4.0952   1.1231   3.3596   3.8282

          k = 0.7500-0.2500 0.7500 (  3259 PWs)   bands (ev):

    -3.1646  -0.3226   2.4910   3.8315

          k = 0.6250-0.1250 0.6250 (  3251 PWs)   bands (ev):

    -2.9568  -0.5840   2.0288   4.1509

          k = 0.5000 0.0000 0.5000 (  3250 PWs)   bands (ev):

    -3.8409   0.5812   2.2673   4.7105

          k = 0.0000 0.7500 0.0000 (  3274 PWs)   bands (ev):

    -3.4932   0.3250   3.4287   3.4287

          k = 0.8750-0.1250 0.8750 (  3270 PWs)   bands (ev):

    -2.5944  -0.7570   2.5883   3.3524

          k = 0.7500 0.0000 0.7500 (  3258 PWs)   bands (ev):

    -2.1485  -1.1566   1.7112   3.6108

          k = 0.0000-1.0000 0.0000 (  3282 PWs)   bands (ev):

    -1.7435  -1.7435   3.1823   3.1823

          k =-0.2500 0.5000 0.0000 (  3270 PWs)   bands (ev):

    -4.5577   1.7689   3.3146   4.6095

          k = 0.6250-0.3750 0.8750 (  3263 PWs)   bands (ev):

    -3.6664   0.2155   2.7065   4.1050

          k = 0.5000-0.2500 0.7500 (  3252 PWs)   bands (ev):

    -3.0075  -0.7369   2.5793   3.8738

          k = 0.7500-0.2500 1.0000 (  3264 PWs)   bands (ev):

    -3.2928   0.1070   2.6624   3.2698

          k = 0.6250-0.1250 0.8750 (  3264 PWs)   bands (ev):

    -2.4131  -0.8611   1.9567   3.0669

          k = 0.5000 0.0000 0.7500 (  3259 PWs)   bands (ev):

    -2.7639  -0.4991   1.7877   3.4456

          k =-0.2500-1.0000 0.0000 (  3272 PWs)   bands (ev):

    -1.6629  -1.6629   2.6074   2.6074

          k =-0.5000-1.0000 0.0000 (  3268 PWs)   bands (ev):

    -1.5738  -1.5738   2.1644   2.1644

     highest occupied level (ev):     6.0370

!    total energy              =     -15.85313041 Ry
     estimated scf accuracy    <          6.5E-09 Ry

     The total energy is the sum of the following terms:
     one-electron contribution =       4.64494951 Ry
     hartree contribution      =       1.09496388 Ry
     xc contribution           =      -4.79719201 Ry
     ewald contribution        =     -16.79585178 Ry

     convergence has been achieved in   6 iterations

     Writing all to output data dir ./SCRATCH/silicon.save/

     init_run     :      0.48s CPU      0.55s WALL (       1 calls)
     electrons    :      5.42s CPU      5.54s WALL (       1 calls)

     Called by init_run:
     wfcinit      :      0.45s CPU      0.49s WALL (       1 calls)
     potinit      :      0.02s CPU      0.02s WALL (       1 calls)
     hinit0       :      0.02s CPU      0.02s WALL (       1 calls)

     Called by electrons:
     c_bands      :      4.56s CPU      4.67s WALL (       7 calls)
     sum_band     :      0.83s CPU      0.80s WALL (       7 calls)
     v_of_rho     :      0.05s CPU      0.04s WALL (       7 calls)
     mix_rho      :      0.00s CPU      0.02s WALL (       7 calls)

     Called by c_bands:
     init_us_2    :      0.03s CPU      0.11s WALL (     435 calls)
     init_us_2:cp :      0.03s CPU      0.11s WALL (     435 calls)
     cegterg      :      4.55s CPU      4.56s WALL (     203 calls)

     Called by *egterg:
     cdiaghg      :      0.02s CPU      0.01s WALL (     657 calls)
     h_psi        :      4.83s CPU      4.73s WALL (     715 calls)
     g_psi        :      0.00s CPU      0.02s WALL (     483 calls)

     Called by h_psi:
     h_psi:calbec :      0.05s CPU      0.08s WALL (     715 calls)
     vloc_psi     :      4.73s CPU      4.58s WALL (     715 calls)
     add_vuspsi   :      0.03s CPU      0.06s WALL (     715 calls)

     General routines
     calbec       :      0.05s CPU      0.07s WALL (     715 calls)
     fft          :      0.05s CPU      0.03s WALL (      21 calls)
     ffts         :      0.02s CPU      0.01s WALL (       7 calls)
     fftw         :      4.92s CPU      4.83s WALL (    6034 calls)


     PWSCF        :      5.94s CPU      6.12s WALL


   This run was terminated on:  12: 4:40  12May2024            

=------------------------------------------------------------------------------=
   JOB DONE.
=------------------------------------------------------------------------------=
