
     Program PWSCF v.7.2 starts on 12May2024 at 12: 5:18 

     This program is part of the open-source Quantum ESPRESSO suite
     for quantum simulation of materials; please cite
         "P. Giannozzi et al., J. Phys.:Condens. Matter 21 395502 (2009);
         "P. Giannozzi et al., J. Phys.:Condens. Matter 29 465901 (2017);
         "P. Giannozzi et al., J. Chem. Phys. 152 154105 (2020);
          URL http://www.quantum-espresso.org", 
     in publications or presentations arising from this work. More details at
     http://www.quantum-espresso.org/quote

     Serial version
     8783 MiB available memory on the printing compute node when the environment starts

     Waiting for input...
     Reading input from standard input

     Current dimensions of program PWSCF are:
     Max number of different atomic species (ntypx) = 10
     Max number of k-points (npk) =  40000
     Max angular momentum in pseudopotentials (lmaxx) =  4


     G-vector sticks info
     --------------------
     sticks:   dense  smooth     PW     G-vecs:    dense   smooth      PW
     Sum        1507    1507    433                38781    38781    5985

     Using Slab Decomposition



     bravais-lattice index     =            2
     lattice parameter (alat)  =      10.4684  a.u.
     unit-cell volume          =     286.7982 (a.u.)^3
     number of atoms/cell      =            2
     number of atomic types    =            1
     number of electrons       =         8.00
     number of Kohn-Sham states=            4
     kinetic-energy cutoff     =     100.0000  Ry
     charge density cutoff     =     400.0000  Ry
     scf convergence threshold =      1.0E-08
     mixing beta               =       0.7000
     number of iterations used =            8  plain     mixing
     Exchange-correlation=  SLA  PZ   NOGX NOGC
                           (   1   1   0   0   0   0   0)

     celldm(1)=  10.468364  celldm(2)=   0.000000  celldm(3)=   0.000000
     celldm(4)=   0.000000  celldm(5)=   0.000000  celldm(6)=   0.000000

     crystal axes: (cart. coord. in units of alat)
               a(1) = (  -0.500000   0.000000   0.500000 )  
               a(2) = (   0.000000   0.500000   0.500000 )  
               a(3) = (  -0.500000   0.500000   0.000000 )  

     reciprocal axes: (cart. coord. in units 2 pi/alat)
               b(1) = ( -1.000000 -1.000000  1.000000 )  
               b(2) = (  1.000000  1.000000  1.000000 )  
               b(3) = ( -1.000000  1.000000 -1.000000 )  


     PseudoPot. # 1 for Si read from file:
     /home/paolo/project_labqsm/pseudopotentials/Si.pz-vbc.UPF
     MD5 check sum: dc3b11d017da532b29132e08c0a6883c
     Pseudo is Norm-conserving, Zval =  4.0
     Generated by new atomic code, or converted to UPF format
     Using radial grid of  431 points,  2 beta functions with: 
                l(1) =   0
                l(2) =   1

     atomic species   valence    mass     pseudopotential
        Si             4.00    12.01100     Si( 1.00)

     48 Sym. Ops., with inversion, found (24 have fractional translation)



   Cartesian axes

     site n.     atom                  positions (alat units)
         1           Si  tau(   1) = (   0.0000000   0.0000000   0.0000000  )
         2           Si  tau(   2) = (   0.2500000   0.2500000   0.2500000  )

     number of k points=    29
                       cart. coord. in units 2pi/alat
        k(    1) = (   0.0000000   0.0000000   0.0000000), wk =   0.0039062
        k(    2) = (  -0.1250000   0.1250000  -0.1250000), wk =   0.0312500
        k(    3) = (  -0.2500000   0.2500000  -0.2500000), wk =   0.0312500
        k(    4) = (  -0.3750000   0.3750000  -0.3750000), wk =   0.0312500
        k(    5) = (   0.5000000  -0.5000000   0.5000000), wk =   0.0156250
        k(    6) = (   0.0000000   0.2500000   0.0000000), wk =   0.0234375
        k(    7) = (  -0.1250000   0.3750000  -0.1250000), wk =   0.0937500
        k(    8) = (  -0.2500000   0.5000000  -0.2500000), wk =   0.0937500
        k(    9) = (   0.6250000  -0.3750000   0.6250000), wk =   0.0937500
        k(   10) = (   0.5000000  -0.2500000   0.5000000), wk =   0.0937500
        k(   11) = (   0.3750000  -0.1250000   0.3750000), wk =   0.0937500
        k(   12) = (   0.2500000   0.0000000   0.2500000), wk =   0.0468750
        k(   13) = (   0.0000000   0.5000000   0.0000000), wk =   0.0234375
        k(   14) = (  -0.1250000   0.6250000  -0.1250000), wk =   0.0937500
        k(   15) = (   0.7500000  -0.2500000   0.7500000), wk =   0.0937500
        k(   16) = (   0.6250000  -0.1250000   0.6250000), wk =   0.0937500
        k(   17) = (   0.5000000   0.0000000   0.5000000), wk =   0.0468750
        k(   18) = (   0.0000000   0.7500000   0.0000000), wk =   0.0234375
        k(   19) = (   0.8750000  -0.1250000   0.8750000), wk =   0.0937500
        k(   20) = (   0.7500000   0.0000000   0.7500000), wk =   0.0468750
        k(   21) = (   0.0000000  -1.0000000   0.0000000), wk =   0.0117188
        k(   22) = (  -0.2500000   0.5000000   0.0000000), wk =   0.0937500
        k(   23) = (   0.6250000  -0.3750000   0.8750000), wk =   0.1875000
        k(   24) = (   0.5000000  -0.2500000   0.7500000), wk =   0.0937500
        k(   25) = (   0.7500000  -0.2500000   1.0000000), wk =   0.0937500
        k(   26) = (   0.6250000  -0.1250000   0.8750000), wk =   0.1875000
        k(   27) = (   0.5000000   0.0000000   0.7500000), wk =   0.0937500
        k(   28) = (  -0.2500000  -1.0000000   0.0000000), wk =   0.0468750
        k(   29) = (  -0.5000000  -1.0000000   0.0000000), wk =   0.0234375

     Dense  grid:    38781 G-vectors     FFT dimensions: (  48,  48,  48)

     Estimated max dynamical RAM per process >      34.50 MB

     Initial potential from superposition of free atoms

     starting charge       7.9990, renormalised to       8.0000
     Starting wfcs are    8 randomized atomic wfcs

     total cpu time spent up to now is        0.6 secs

     Self-consistent Calculation

     iteration #  1     ecut=   100.00 Ry     beta= 0.70
     Davidson diagonalization with overlap
     ethr =  1.00E-02,  avg # of iterations =  2.0

     Threshold (ethr) on eigenvalues was too large:
     Diagonalizing with lowered threshold

     Davidson diagonalization with overlap
     ethr =  6.03E-04,  avg # of iterations =  1.3

     total cpu time spent up to now is        2.2 secs

     total energy              =     -15.84594128 Ry
     estimated scf accuracy    <       0.05310194 Ry

     iteration #  2     ecut=   100.00 Ry     beta= 0.70
     Davidson diagonalization with overlap
     ethr =  6.64E-04,  avg # of iterations =  1.0

     total cpu time spent up to now is        2.8 secs

     total energy              =     -15.84831402 Ry
     estimated scf accuracy    <       0.00220467 Ry

     iteration #  3     ecut=   100.00 Ry     beta= 0.70
     Davidson diagonalization with overlap
     ethr =  2.76E-05,  avg # of iterations =  2.2

     total cpu time spent up to now is        3.6 secs

     total energy              =     -15.84870450 Ry
     estimated scf accuracy    <       0.00006266 Ry

     iteration #  4     ecut=   100.00 Ry     beta= 0.70
     Davidson diagonalization with overlap
     ethr =  7.83E-07,  avg # of iterations =  3.1

     total cpu time spent up to now is        4.6 secs

     total energy              =     -15.84873498 Ry
     estimated scf accuracy    <       0.00000157 Ry

     iteration #  5     ecut=   100.00 Ry     beta= 0.70
     Davidson diagonalization with overlap
     ethr =  1.97E-08,  avg # of iterations =  4.0

     total cpu time spent up to now is        5.7 secs

     total energy              =     -15.84873627 Ry
     estimated scf accuracy    <       0.00000006 Ry

     iteration #  6     ecut=   100.00 Ry     beta= 0.70
     Davidson diagonalization with overlap
     ethr =  7.88E-10,  avg # of iterations =  3.3

     total cpu time spent up to now is        6.7 secs

     total energy              =     -15.84873631 Ry
     estimated scf accuracy    <       0.00000001 Ry

     iteration #  7     ecut=   100.00 Ry     beta= 0.70
     Davidson diagonalization with overlap
     ethr =  1.85E-10,  avg # of iterations =  2.1

     total cpu time spent up to now is        7.5 secs

     End of self-consistent calculation

          k = 0.0000 0.0000 0.0000 (  4909 PWs)   bands (ev):

    -6.0924   5.4390   5.4390   5.4390

          k =-0.1250 0.1250-0.1250 (  4852 PWs)   bands (ev):

    -5.8984   3.8535   5.1671   5.1671

          k =-0.2500 0.2500-0.2500 (  4822 PWs)   bands (ev):

    -5.3332   1.6177   4.7176   4.7176

          k =-0.3750 0.3750-0.3750 (  4837 PWs)   bands (ev):

    -4.4890  -0.3060   4.4019   4.4019

          k = 0.5000-0.5000 0.5000 (  4850 PWs)   bands (ev):

    -3.8945  -1.2687   4.2933   4.2933

          k = 0.0000 0.2500 0.0000 (  4861 PWs)   bands (ev):

    -5.8330   4.0488   4.6846   4.6846

          k =-0.1250 0.3750-0.1250 (  4846 PWs)   bands (ev):

    -5.3879   2.2631   4.1973   4.2374

          k =-0.2500 0.5000-0.2500 (  4837 PWs)   bands (ev):

    -4.6163   0.3089   3.6653   3.9374

          k = 0.6250-0.3750 0.6250 (  4841 PWs)   bands (ev):

    -3.8094  -1.0708   3.2419   3.9555

          k = 0.5000-0.2500 0.5000 (  4846 PWs)   bands (ev):

    -4.0369  -0.7231   3.0768   4.2334

          k = 0.3750-0.1250 0.3750 (  4833 PWs)   bands (ev):

    -4.9061   0.9335   3.2360   4.6981

          k = 0.2500 0.0000 0.2500 (  4830 PWs)   bands (ev):

    -5.5791   2.7786   3.9066   5.1544

          k = 0.0000 0.5000 0.0000 (  4833 PWs)   bands (ev):

    -5.0644   1.9286   3.6556   3.6556

          k =-0.1250 0.6250-0.1250 (  4834 PWs)   bands (ev):

    -4.3910   0.5829   2.9065   3.3504

          k = 0.7500-0.2500 0.7500 (  4839 PWs)   bands (ev):

    -3.5187  -0.7701   2.0791   3.3504

          k = 0.6250-0.1250 0.6250 (  4852 PWs)   bands (ev):

    -3.3305  -1.0084   1.6470   3.6506

          k = 0.5000 0.0000 0.5000 (  4852 PWs)   bands (ev):

    -4.1553   0.0833   1.8872   4.1775

          k = 0.0000 0.7500 0.0000 (  4848 PWs)   bands (ev):

    -3.8183  -0.1940   2.9706   2.9706

          k = 0.8750-0.1250 0.8750 (  4846 PWs)   bands (ev):

    -2.9693  -1.2247   2.1926   2.8967

          k = 0.7500 0.0000 0.7500 (  4854 PWs)   bands (ev):

    -2.5659  -1.5930   1.3795   3.1408

          k = 0.0000-1.0000 0.0000 (  4824 PWs)   bands (ev):

    -2.1585  -2.1585   2.7352   2.7352

          k =-0.2500 0.5000 0.0000 (  4838 PWs)   bands (ev):

    -4.8303   1.2167   2.8742   4.0811

          k = 0.6250-0.3750 0.8750 (  4842 PWs)   bands (ev):

    -3.9910  -0.2477   2.2763   3.6141

          k = 0.5000-0.2500 0.7500 (  4840 PWs)   bands (ev):

    -3.3822  -1.1298   2.1420   3.4008

          k = 0.7500-0.2500 1.0000 (  4835 PWs)   bands (ev):

    -3.6324  -0.4017   2.2580   2.8361

          k = 0.6250-0.1250 0.8750 (  4843 PWs)   bands (ev):

    -2.8111  -1.3160   1.6006   2.6460

          k = 0.5000 0.0000 0.7500 (  4849 PWs)   bands (ev):

    -3.1427  -0.9690   1.4437   2.9995

          k =-0.2500-1.0000 0.0000 (  4854 PWs)   bands (ev):

    -2.0895  -2.0895   2.2115   2.2115

          k =-0.5000-1.0000 0.0000 (  4888 PWs)   bands (ev):

    -2.0142  -2.0142   1.8063   1.8063

     highest occupied level (ev):     5.4390

!    total energy              =     -15.84873631 Ry
     estimated scf accuracy    <          1.2E-11 Ry

     The total energy is the sum of the following terms:
     one-electron contribution =       4.20683444 Ry
     hartree contribution      =       1.14499716 Ry
     xc contribution           =      -4.73404655 Ry
     ewald contribution        =     -16.46652136 Ry

     convergence has been achieved in   7 iterations

     Writing all to output data dir ./SCRATCH/silicon.save/

     init_run     :      0.59s CPU      0.62s WALL (       1 calls)
     electrons    :      6.77s CPU      6.87s WALL (       1 calls)

     Called by init_run:
     wfcinit      :      0.53s CPU      0.55s WALL (       1 calls)
     potinit      :      0.02s CPU      0.02s WALL (       1 calls)
     hinit0       :      0.02s CPU      0.02s WALL (       1 calls)

     Called by electrons:
     c_bands      :      5.70s CPU      5.79s WALL (       8 calls)
     sum_band     :      0.98s CPU      1.00s WALL (       8 calls)
     v_of_rho     :      0.08s CPU      0.05s WALL (       8 calls)
     mix_rho      :      0.02s CPU      0.04s WALL (       8 calls)

     Called by c_bands:
     init_us_2    :      0.20s CPU      0.19s WALL (     493 calls)
     init_us_2:cp :      0.20s CPU      0.19s WALL (     493 calls)
     cegterg      :      5.58s CPU      5.62s WALL (     232 calls)

     Called by *egterg:
     cdiaghg      :      0.02s CPU      0.01s WALL (     753 calls)
     h_psi        :      5.67s CPU      5.65s WALL (     811 calls)
     g_psi        :      0.00s CPU      0.02s WALL (     550 calls)

     Called by h_psi:
     h_psi:calbec :      0.11s CPU      0.12s WALL (     811 calls)
     vloc_psi     :      5.50s CPU      5.41s WALL (     811 calls)
     add_vuspsi   :      0.06s CPU      0.09s WALL (     811 calls)

     General routines
     calbec       :      0.11s CPU      0.12s WALL (     811 calls)
     fft          :      0.05s CPU      0.03s WALL (      24 calls)
     ffts         :      0.00s CPU      0.01s WALL (       8 calls)
     fftw         :      5.84s CPU      5.72s WALL (    6786 calls)


     PWSCF        :      7.38s CPU      7.53s WALL


   This run was terminated on:  12: 5:26  12May2024            

=------------------------------------------------------------------------------=
   JOB DONE.
=------------------------------------------------------------------------------=
