
     Program PWSCF v.7.2 starts on 12May2024 at 12: 4:30 

     This program is part of the open-source Quantum ESPRESSO suite
     for quantum simulation of materials; please cite
         "P. Giannozzi et al., J. Phys.:Condens. Matter 21 395502 (2009);
         "P. Giannozzi et al., J. Phys.:Condens. Matter 29 465901 (2017);
         "P. Giannozzi et al., J. Chem. Phys. 152 154105 (2020);
          URL http://www.quantum-espresso.org", 
     in publications or presentations arising from this work. More details at
     http://www.quantum-espresso.org/quote

     Serial version
     8862 MiB available memory on the printing compute node when the environment starts

     Waiting for input...
     Reading input from standard input

     Current dimensions of program PWSCF are:
     Max number of different atomic species (ntypx) = 10
     Max number of k-points (npk) =  40000
     Max angular momentum in pseudopotentials (lmaxx) =  4


     G-vector sticks info
     --------------------
     sticks:   dense  smooth     PW     G-vecs:    dense   smooth      PW
     Sum         583     583    187                 9257     9257    1639

     Using Slab Decomposition



     bravais-lattice index     =            2
     lattice parameter (alat)  =      10.2631  a.u.
     unit-cell volume          =     270.2564 (a.u.)^3
     number of atoms/cell      =            2
     number of atomic types    =            1
     number of electrons       =         8.00
     number of Kohn-Sham states=            4
     kinetic-energy cutoff     =      40.0000  Ry
     charge density cutoff     =     160.0000  Ry
     scf convergence threshold =      1.0E-08
     mixing beta               =       0.7000
     number of iterations used =            8  plain     mixing
     Exchange-correlation=  SLA  PZ   NOGX NOGC
                           (   1   1   0   0   0   0   0)

     celldm(1)=  10.263102  celldm(2)=   0.000000  celldm(3)=   0.000000
     celldm(4)=   0.000000  celldm(5)=   0.000000  celldm(6)=   0.000000

     crystal axes: (cart. coord. in units of alat)
               a(1) = (  -0.500000   0.000000   0.500000 )  
               a(2) = (   0.000000   0.500000   0.500000 )  
               a(3) = (  -0.500000   0.500000   0.000000 )  

     reciprocal axes: (cart. coord. in units 2 pi/alat)
               b(1) = ( -1.000000 -1.000000  1.000000 )  
               b(2) = (  1.000000  1.000000  1.000000 )  
               b(3) = ( -1.000000  1.000000 -1.000000 )  


     PseudoPot. # 1 for Si read from file:
     /home/paolo/project_labqsm/pseudopotentials/Si.pz-vbc.UPF
     MD5 check sum: dc3b11d017da532b29132e08c0a6883c
     Pseudo is Norm-conserving, Zval =  4.0
     Generated by new atomic code, or converted to UPF format
     Using radial grid of  431 points,  2 beta functions with: 
                l(1) =   0
                l(2) =   1

     atomic species   valence    mass     pseudopotential
        Si             4.00    12.01100     Si( 1.00)

     48 Sym. Ops., with inversion, found (24 have fractional translation)



   Cartesian axes

     site n.     atom                  positions (alat units)
         1           Si  tau(   1) = (   0.0000000   0.0000000   0.0000000  )
         2           Si  tau(   2) = (   0.2500000   0.2500000   0.2500000  )

     number of k points=    29
                       cart. coord. in units 2pi/alat
        k(    1) = (   0.0000000   0.0000000   0.0000000), wk =   0.0039062
        k(    2) = (  -0.1250000   0.1250000  -0.1250000), wk =   0.0312500
        k(    3) = (  -0.2500000   0.2500000  -0.2500000), wk =   0.0312500
        k(    4) = (  -0.3750000   0.3750000  -0.3750000), wk =   0.0312500
        k(    5) = (   0.5000000  -0.5000000   0.5000000), wk =   0.0156250
        k(    6) = (   0.0000000   0.2500000   0.0000000), wk =   0.0234375
        k(    7) = (  -0.1250000   0.3750000  -0.1250000), wk =   0.0937500
        k(    8) = (  -0.2500000   0.5000000  -0.2500000), wk =   0.0937500
        k(    9) = (   0.6250000  -0.3750000   0.6250000), wk =   0.0937500
        k(   10) = (   0.5000000  -0.2500000   0.5000000), wk =   0.0937500
        k(   11) = (   0.3750000  -0.1250000   0.3750000), wk =   0.0937500
        k(   12) = (   0.2500000   0.0000000   0.2500000), wk =   0.0468750
        k(   13) = (   0.0000000   0.5000000   0.0000000), wk =   0.0234375
        k(   14) = (  -0.1250000   0.6250000  -0.1250000), wk =   0.0937500
        k(   15) = (   0.7500000  -0.2500000   0.7500000), wk =   0.0937500
        k(   16) = (   0.6250000  -0.1250000   0.6250000), wk =   0.0937500
        k(   17) = (   0.5000000   0.0000000   0.5000000), wk =   0.0468750
        k(   18) = (   0.0000000   0.7500000   0.0000000), wk =   0.0234375
        k(   19) = (   0.8750000  -0.1250000   0.8750000), wk =   0.0937500
        k(   20) = (   0.7500000   0.0000000   0.7500000), wk =   0.0468750
        k(   21) = (   0.0000000  -1.0000000   0.0000000), wk =   0.0117188
        k(   22) = (  -0.2500000   0.5000000   0.0000000), wk =   0.0937500
        k(   23) = (   0.6250000  -0.3750000   0.8750000), wk =   0.1875000
        k(   24) = (   0.5000000  -0.2500000   0.7500000), wk =   0.0937500
        k(   25) = (   0.7500000  -0.2500000   1.0000000), wk =   0.0937500
        k(   26) = (   0.6250000  -0.1250000   0.8750000), wk =   0.1875000
        k(   27) = (   0.5000000   0.0000000   0.7500000), wk =   0.0937500
        k(   28) = (  -0.2500000  -1.0000000   0.0000000), wk =   0.0468750
        k(   29) = (  -0.5000000  -1.0000000   0.0000000), wk =   0.0234375

     Dense  grid:     9257 G-vectors     FFT dimensions: (  32,  32,  32)

     Estimated max dynamical RAM per process >       8.73 MB

     Initial potential from superposition of free atoms

     starting charge       7.9990, renormalised to       8.0000
     Starting wfcs are    8 randomized atomic wfcs

     total cpu time spent up to now is        0.2 secs

     Self-consistent Calculation

     iteration #  1     ecut=    40.00 Ry     beta= 0.70
     Davidson diagonalization with overlap
     ethr =  1.00E-02,  avg # of iterations =  2.0

     Threshold (ethr) on eigenvalues was too large:
     Diagonalizing with lowered threshold

     Davidson diagonalization with overlap
     ethr =  6.72E-04,  avg # of iterations =  1.1

     total cpu time spent up to now is        0.6 secs

     total energy              =     -15.84919321 Ry
     estimated scf accuracy    <       0.05933851 Ry

     iteration #  2     ecut=    40.00 Ry     beta= 0.70
     Davidson diagonalization with overlap
     ethr =  7.42E-04,  avg # of iterations =  1.0

     total cpu time spent up to now is        0.7 secs

     total energy              =     -15.85225497 Ry
     estimated scf accuracy    <       0.00220692 Ry

     iteration #  3     ecut=    40.00 Ry     beta= 0.70
     Davidson diagonalization with overlap
     ethr =  2.76E-05,  avg # of iterations =  2.3

     total cpu time spent up to now is        0.9 secs

     total energy              =     -15.85271711 Ry
     estimated scf accuracy    <       0.00007115 Ry

     iteration #  4     ecut=    40.00 Ry     beta= 0.70
     Davidson diagonalization with overlap
     ethr =  8.89E-07,  avg # of iterations =  2.8

     total cpu time spent up to now is        1.2 secs

     total energy              =     -15.85274700 Ry
     estimated scf accuracy    <       0.00000220 Ry

     iteration #  5     ecut=    40.00 Ry     beta= 0.70
     Davidson diagonalization with overlap
     ethr =  2.75E-08,  avg # of iterations =  3.6

     total cpu time spent up to now is        1.4 secs

     total energy              =     -15.85274845 Ry
     estimated scf accuracy    <       0.00000009 Ry

     iteration #  6     ecut=    40.00 Ry     beta= 0.70
     Davidson diagonalization with overlap
     ethr =  1.12E-09,  avg # of iterations =  3.4

     total cpu time spent up to now is        1.7 secs

     End of self-consistent calculation

          k = 0.0000 0.0000 0.0000 (  1139 PWs)   bands (ev):

    -5.8874   6.0369   6.0369   6.0369

          k =-0.1250 0.1250-0.1250 (  1173 PWs)   bands (ev):

    -5.6832   4.4419   5.7486   5.7486

          k =-0.2500 0.2500-0.2500 (  1164 PWs)   bands (ev):

    -5.0870   2.1175   5.2784   5.2784

          k =-0.3750 0.3750-0.3750 (  1155 PWs)   bands (ev):

    -4.1894   0.0951   4.9515   4.9515

          k = 0.5000-0.5000 0.5000 (  1158 PWs)   bands (ev):

    -3.5436  -0.9350   4.8396   4.8396

          k = 0.0000 0.2500 0.0000 (  1163 PWs)   bands (ev):

    -5.6145   4.7104   5.2311   5.2311

          k =-0.1250 0.3750-0.1250 (  1160 PWs)   bands (ev):

    -5.1455   2.8249   4.7191   4.7940

          k =-0.2500 0.5000-0.2500 (  1151 PWs)   bands (ev):

    -4.3284   0.7637   4.2014   4.4508

          k = 0.6250-0.3750 0.6250 (  1160 PWs)   bands (ev):

    -3.4593  -0.7073   3.7551   4.4755

          k = 0.5000-0.2500 0.5000 (  1151 PWs)   bands (ev):

    -3.7069  -0.3335   3.5723   4.7726

          k = 0.3750-0.1250 0.3750 (  1151 PWs)   bands (ev):

    -4.6357   1.4241   3.7216   5.2645

          k = 0.2500 0.0000 0.2500 (  1159 PWs)   bands (ev):

    -5.3468   3.3645   4.4038   5.7452

          k = 0.0000 0.5000 0.0000 (  1174 PWs)   bands (ev):

    -4.8054   2.5438   4.1469   4.1469

          k =-0.1250 0.6250-0.1250 (  1157 PWs)   bands (ev):

    -4.0945   1.1242   3.3596   3.8281

          k = 0.7500-0.2500 0.7500 (  1156 PWs)   bands (ev):

    -3.1638  -0.3217   2.4911   3.8313

          k = 0.6250-0.1250 0.6250 (  1150 PWs)   bands (ev):

    -2.9559  -0.5833   2.0289   4.1507

          k = 0.5000 0.0000 0.5000 (  1159 PWs)   bands (ev):

    -3.8401   0.5821   2.2673   4.7103

          k = 0.0000 0.7500 0.0000 (  1150 PWs)   bands (ev):

    -3.4924   0.3261   3.4286   3.4286

          k = 0.8750-0.1250 0.8750 (  1150 PWs)   bands (ev):

    -2.5936  -0.7560   2.5882   3.3522

          k = 0.7500 0.0000 0.7500 (  1144 PWs)   bands (ev):

    -2.1475  -1.1556   1.7111   3.6106

          k = 0.0000-1.0000 0.0000 (  1162 PWs)   bands (ev):

    -1.7426  -1.7426   3.1821   3.1821

          k =-0.2500 0.5000 0.0000 (  1153 PWs)   bands (ev):

    -4.5570   1.7700   3.3146   4.6095

          k = 0.6250-0.3750 0.8750 (  1150 PWs)   bands (ev):

    -3.6656   0.2164   2.7067   4.1049

          k = 0.5000-0.2500 0.7500 (  1154 PWs)   bands (ev):

    -3.0066  -0.7363   2.5795   3.8737

          k = 0.7500-0.2500 1.0000 (  1171 PWs)   bands (ev):

    -3.2921   0.1080   2.6624   3.2697

          k = 0.6250-0.1250 0.8750 (  1157 PWs)   bands (ev):

    -2.4122  -0.8601   1.9567   3.0668

          k = 0.5000 0.0000 0.7500 (  1153 PWs)   bands (ev):

    -2.7631  -0.4981   1.7877   3.4455

          k =-0.2500-1.0000 0.0000 (  1156 PWs)   bands (ev):

    -1.6620  -1.6620   2.6073   2.6073

          k =-0.5000-1.0000 0.0000 (  1144 PWs)   bands (ev):

    -1.5728  -1.5728   2.1643   2.1643

     highest occupied level (ev):     6.0369

!    total energy              =     -15.85274849 Ry
     estimated scf accuracy    <          8.1E-09 Ry

     The total energy is the sum of the following terms:
     one-electron contribution =       4.64550038 Ry
     hartree contribution      =       1.09484243 Ry
     xc contribution           =      -4.79723948 Ry
     ewald contribution        =     -16.79585182 Ry

     convergence has been achieved in   6 iterations

     Writing all to output data dir ./SCRATCH/silicon.save/

     init_run     :      0.14s CPU      0.16s WALL (       1 calls)
     electrons    :      1.48s CPU      1.53s WALL (       1 calls)

     Called by init_run:
     wfcinit      :      0.12s CPU      0.14s WALL (       1 calls)
     potinit      :      0.00s CPU      0.01s WALL (       1 calls)
     hinit0       :      0.02s CPU      0.01s WALL (       1 calls)

     Called by electrons:
     c_bands      :      1.27s CPU      1.29s WALL (       7 calls)
     sum_band     :      0.22s CPU      0.22s WALL (       7 calls)
     v_of_rho     :      0.00s CPU      0.01s WALL (       7 calls)
     mix_rho      :      0.00s CPU      0.01s WALL (       7 calls)

     Called by c_bands:
     init_us_2    :      0.00s CPU      0.04s WALL (     435 calls)
     init_us_2:cp :      0.00s CPU      0.04s WALL (     435 calls)
     cegterg      :      1.25s CPU      1.23s WALL (     203 calls)

     Called by *egterg:
     cdiaghg      :      0.02s CPU      0.01s WALL (     643 calls)
     h_psi        :      1.28s CPU      1.24s WALL (     701 calls)
     g_psi        :      0.03s CPU      0.01s WALL (     469 calls)

     Called by h_psi:
     h_psi:calbec :      0.03s CPU      0.03s WALL (     701 calls)
     vloc_psi     :      1.22s CPU      1.18s WALL (     701 calls)
     add_vuspsi   :      0.02s CPU      0.02s WALL (     701 calls)

     General routines
     calbec       :      0.03s CPU      0.03s WALL (     701 calls)
     fft          :      0.02s CPU      0.01s WALL (      21 calls)
     ffts         :      0.00s CPU      0.00s WALL (       7 calls)
     fftw         :      1.34s CPU      1.22s WALL (    5974 calls)


     PWSCF        :      1.64s CPU      1.71s WALL


   This run was terminated on:  12: 4:32  12May2024            

=------------------------------------------------------------------------------=
   JOB DONE.
=------------------------------------------------------------------------------=
