
     Program PWSCF v.7.2 starts on  9Jun2024 at 11:34: 3 

     This program is part of the open-source Quantum ESPRESSO suite
     for quantum simulation of materials; please cite
         "P. Giannozzi et al., J. Phys.:Condens. Matter 21 395502 (2009);
         "P. Giannozzi et al., J. Phys.:Condens. Matter 29 465901 (2017);
         "P. Giannozzi et al., J. Chem. Phys. 152 154105 (2020);
          URL http://www.quantum-espresso.org", 
     in publications or presentations arising from this work. More details at
     http://www.quantum-espresso.org/quote

     Serial version
     8827 MiB available memory on the printing compute node when the environment starts

     Waiting for input...
     Reading input from standard input

     Current dimensions of program PWSCF are:
     Max number of different atomic species (ntypx) = 10
     Max number of k-points (npk) =  40000
     Max angular momentum in pseudopotentials (lmaxx) =  4


     G-vector sticks info
     --------------------
     sticks:   dense  smooth     PW     G-vecs:    dense   smooth      PW
     Sum        1735    1735    499                47855    47855    7391

     Using Slab Decomposition



     bravais-lattice index     =            2
     lattice parameter (alat)  =      10.2631  a.u.
     unit-cell volume          =     270.2564 (a.u.)^3
     number of atoms/cell      =            2
     number of atomic types    =            1
     number of electrons       =         8.00
     number of Kohn-Sham states=            4
     kinetic-energy cutoff     =     120.0000  Ry
     charge density cutoff     =     480.0000  Ry
     scf convergence threshold =      1.0E-08
     mixing beta               =       0.7000
     number of iterations used =            8  plain     mixing
     Exchange-correlation= PBE
                           (   1   4   3   4   0   0   0)

     celldm(1)=  10.263102  celldm(2)=   0.000000  celldm(3)=   0.000000
     celldm(4)=   0.000000  celldm(5)=   0.000000  celldm(6)=   0.000000

     crystal axes: (cart. coord. in units of alat)
               a(1) = (  -0.500000   0.000000   0.500000 )  
               a(2) = (   0.000000   0.500000   0.500000 )  
               a(3) = (  -0.500000   0.500000   0.000000 )  

     reciprocal axes: (cart. coord. in units 2 pi/alat)
               b(1) = ( -1.000000 -1.000000  1.000000 )  
               b(2) = (  1.000000  1.000000  1.000000 )  
               b(3) = ( -1.000000  1.000000 -1.000000 )  


     PseudoPot. # 1 for Si read from file:
     /home/paolo/project_labqsm/pseudopotentials/Si_ONCV_PBE-1.2.upf
     MD5 check sum: 7f029a58b69e3aa87b46a36c608bf45e
     Pseudo is Norm-conserving, Zval =  4.0
     Generated using ONCVPSP code by D. R. Hamann
     Using radial grid of  602 points,  4 beta functions with: 
                l(1) =   0
                l(2) =   0
                l(3) =   1
                l(4) =   1

     atomic species   valence    mass     pseudopotential
        Si             4.00    28.08500     Si( 1.00)

     48 Sym. Ops., with inversion, found (24 have fractional translation)



   Cartesian axes

     site n.     atom                  positions (alat units)
         1           Si  tau(   1) = (   0.0000000   0.0000000   0.0000000  )
         2           Si  tau(   2) = (   0.2500000   0.2500000   0.2500000  )

     number of k points=    29
                       cart. coord. in units 2pi/alat
        k(    1) = (   0.0000000   0.0000000   0.0000000), wk =   0.0039062
        k(    2) = (  -0.1250000   0.1250000  -0.1250000), wk =   0.0312500
        k(    3) = (  -0.2500000   0.2500000  -0.2500000), wk =   0.0312500
        k(    4) = (  -0.3750000   0.3750000  -0.3750000), wk =   0.0312500
        k(    5) = (   0.5000000  -0.5000000   0.5000000), wk =   0.0156250
        k(    6) = (   0.0000000   0.2500000   0.0000000), wk =   0.0234375
        k(    7) = (  -0.1250000   0.3750000  -0.1250000), wk =   0.0937500
        k(    8) = (  -0.2500000   0.5000000  -0.2500000), wk =   0.0937500
        k(    9) = (   0.6250000  -0.3750000   0.6250000), wk =   0.0937500
        k(   10) = (   0.5000000  -0.2500000   0.5000000), wk =   0.0937500
        k(   11) = (   0.3750000  -0.1250000   0.3750000), wk =   0.0937500
        k(   12) = (   0.2500000   0.0000000   0.2500000), wk =   0.0468750
        k(   13) = (   0.0000000   0.5000000   0.0000000), wk =   0.0234375
        k(   14) = (  -0.1250000   0.6250000  -0.1250000), wk =   0.0937500
        k(   15) = (   0.7500000  -0.2500000   0.7500000), wk =   0.0937500
        k(   16) = (   0.6250000  -0.1250000   0.6250000), wk =   0.0937500
        k(   17) = (   0.5000000   0.0000000   0.5000000), wk =   0.0468750
        k(   18) = (   0.0000000   0.7500000   0.0000000), wk =   0.0234375
        k(   19) = (   0.8750000  -0.1250000   0.8750000), wk =   0.0937500
        k(   20) = (   0.7500000   0.0000000   0.7500000), wk =   0.0468750
        k(   21) = (   0.0000000  -1.0000000   0.0000000), wk =   0.0117188
        k(   22) = (  -0.2500000   0.5000000   0.0000000), wk =   0.0937500
        k(   23) = (   0.6250000  -0.3750000   0.8750000), wk =   0.1875000
        k(   24) = (   0.5000000  -0.2500000   0.7500000), wk =   0.0937500
        k(   25) = (   0.7500000  -0.2500000   1.0000000), wk =   0.0937500
        k(   26) = (   0.6250000  -0.1250000   0.8750000), wk =   0.1875000
        k(   27) = (   0.5000000   0.0000000   0.7500000), wk =   0.0937500
        k(   28) = (  -0.2500000  -1.0000000   0.0000000), wk =   0.0468750
        k(   29) = (  -0.5000000  -1.0000000   0.0000000), wk =   0.0234375

     Dense  grid:    47855 G-vectors     FFT dimensions: (  60,  60,  60)

     Estimated max dynamical RAM per process >      49.15 MB

     Initial potential from superposition of free atoms

     starting charge       7.9075, renormalised to       8.0000
     Starting wfcs are random

     total cpu time spent up to now is        0.7 secs

     Self-consistent Calculation

     iteration #  1     ecut=   120.00 Ry     beta= 0.70
     Davidson diagonalization with overlap
     ethr =  1.00E-02,  avg # of iterations =  8.4

     Threshold (ethr) on eigenvalues was too large:
     Diagonalizing with lowered threshold

     Davidson diagonalization with overlap
     ethr =  5.58E-04,  avg # of iterations =  3.5

     total cpu time spent up to now is        6.0 secs

     total energy              =     -15.76270665 Ry
     estimated scf accuracy    <       0.05256613 Ry

     iteration #  2     ecut=   120.00 Ry     beta= 0.70
     Davidson diagonalization with overlap
     ethr =  6.57E-04,  avg # of iterations =  1.0

     total cpu time spent up to now is        7.2 secs

     total energy              =     -15.76514264 Ry
     estimated scf accuracy    <       0.00239267 Ry

     iteration #  3     ecut=   120.00 Ry     beta= 0.70
     Davidson diagonalization with overlap
     ethr =  2.99E-05,  avg # of iterations =  3.1

     total cpu time spent up to now is        8.9 secs

     total energy              =     -15.76580860 Ry
     estimated scf accuracy    <       0.00004582 Ry

     iteration #  4     ecut=   120.00 Ry     beta= 0.70
     Davidson diagonalization with overlap
     ethr =  5.73E-07,  avg # of iterations =  4.5

     total cpu time spent up to now is       11.1 secs

     total energy              =     -15.76584391 Ry
     estimated scf accuracy    <       0.00000045 Ry

     iteration #  5     ecut=   120.00 Ry     beta= 0.70
     Davidson diagonalization with overlap
     ethr =  5.57E-09,  avg # of iterations =  5.8

     total cpu time spent up to now is       13.7 secs

     total energy              =     -15.76584527 Ry
     estimated scf accuracy    <       0.00000003 Ry

     iteration #  6     ecut=   120.00 Ry     beta= 0.70
     Davidson diagonalization with overlap
     ethr =  3.34E-10,  avg # of iterations =  3.2

     total cpu time spent up to now is       15.5 secs

     End of self-consistent calculation

          k = 0.0000 0.0000 0.0000 (  5985 PWs)   bands (ev):

    -5.7354   6.2209   6.2209   6.2209

          k =-0.1250 0.1250-0.1250 (  6000 PWs)   bands (ev):

    -5.5314   4.6229   5.9341   5.9341

          k =-0.2500 0.2500-0.2500 (  6006 PWs)   bands (ev):

    -4.9363   2.2968   5.4666   5.4666

          k =-0.3750 0.3750-0.3750 (  6020 PWs)   bands (ev):

    -4.0434   0.2784   5.1418   5.1418

          k = 0.5000-0.5000 0.5000 (  5996 PWs)   bands (ev):

    -3.4064  -0.7430   5.0307   5.0307

          k = 0.0000 0.2500 0.0000 (  6022 PWs)   bands (ev):

    -5.4626   4.8844   5.4185   5.4185

          k =-0.1250 0.3750-0.1250 (  6010 PWs)   bands (ev):

    -4.9943   2.9980   4.9092   4.9821

          k =-0.2500 0.5000-0.2500 (  5993 PWs)   bands (ev):

    -4.1801   0.9397   4.3915   4.6428

          k = 0.6250-0.3750 0.6250 (  5998 PWs)   bands (ev):

    -3.3196  -0.5222   3.9468   4.6679

          k = 0.5000-0.2500 0.5000 (  6014 PWs)   bands (ev):

    -3.5638  -0.1520   3.7656   4.9637

          k = 0.3750-0.1250 0.3750 (  6008 PWs)   bands (ev):

    -4.4861   1.5983   3.9164   5.4532

          k = 0.2500 0.0000 0.2500 (  6015 PWs)   bands (ev):

    -5.1954   3.5375   4.5981   5.9313

          k = 0.0000 0.5000 0.0000 (  5982 PWs)   bands (ev):

    -4.6542   2.7024   4.3399   4.3399

          k =-0.1250 0.6250-0.1250 (  6010 PWs)   bands (ev):

    -3.9447   1.2810   3.5585   4.0231

          k = 0.7500-0.2500 0.7500 (  5990 PWs)   bands (ev):

    -3.0195  -0.1590   2.6944   4.0267

          k = 0.6250-0.1250 0.6250 (  5983 PWs)   bands (ev):

    -2.8156  -0.4169   2.2362   4.3445

          k = 0.5000 0.0000 0.5000 (  5995 PWs)   bands (ev):

    -3.6932   0.7426   2.4767   4.9014

          k = 0.0000 0.7500 0.0000 (  6010 PWs)   bands (ev):

    -3.3425   0.4765   3.6259   3.6259

          k = 0.8750-0.1250 0.8750 (  5985 PWs)   bands (ev):

    -2.4458  -0.6077   2.7955   3.5502

          k = 0.7500 0.0000 0.7500 (  5990 PWs)   bands (ev):

    -2.0078  -1.0037   1.9290   3.8072

          k = 0.0000-1.0000 0.0000 (  5962 PWs)   bands (ev):

    -1.5936  -1.5936   3.3811   3.3811

          k =-0.2500 0.5000 0.0000 (  6005 PWs)   bands (ev):

    -4.4070   1.9324   3.5158   4.8002

          k = 0.6250-0.3750 0.8750 (  5998 PWs)   bands (ev):

    -3.5194   0.3823   2.9073   4.3002

          k = 0.5000-0.2500 0.7500 (  5984 PWs)   bands (ev):

    -2.8679  -0.5615   2.7779   4.0712

          k = 0.7500-0.2500 1.0000 (  6003 PWs)   bands (ev):

    -3.1441   0.2578   2.8682   3.4717

          k = 0.6250-0.1250 0.8750 (  5995 PWs)   bands (ev):

    -2.2702  -0.7092   2.1698   3.2708

          k = 0.5000 0.0000 0.7500 (  5985 PWs)   bands (ev):

    -2.6206  -0.3461   2.0030   3.6462

          k =-0.2500-1.0000 0.0000 (  5994 PWs)   bands (ev):

    -1.5159  -1.5159   2.8146   2.8146

          k =-0.5000-1.0000 0.0000 (  6008 PWs)   bands (ev):

    -1.4303  -1.4303   2.3780   2.3780

     highest occupied level (ev):     6.2209

!    total energy              =     -15.76584528 Ry
     estimated scf accuracy    <          1.0E-10 Ry

     The total energy is the sum of the following terms:
     one-electron contribution =       4.74323975 Ry
     hartree contribution      =       1.10238782 Ry
     xc contribution           =      -4.81562107 Ry
     ewald contribution        =     -16.79585178 Ry

     convergence has been achieved in   6 iterations

     Writing all to output data dir ./SCRATCH/silicon.save/

     init_run     :      0.59s CPU      0.67s WALL (       1 calls)
     electrons    :     14.59s CPU     14.78s WALL (       1 calls)

     Called by init_run:
     wfcinit      :      0.48s CPU      0.48s WALL (       1 calls)
     potinit      :      0.05s CPU      0.12s WALL (       1 calls)
     hinit0       :      0.02s CPU      0.03s WALL (       1 calls)

     Called by electrons:
     c_bands      :     12.56s CPU     12.64s WALL (       7 calls)
     sum_band     :      1.58s CPU      1.59s WALL (       7 calls)
     v_of_rho     :      0.44s CPU      0.61s WALL (       7 calls)
     mix_rho      :      0.05s CPU      0.04s WALL (       7 calls)

     Called by c_bands:
     init_us_2    :      0.23s CPU      0.27s WALL (     435 calls)
     init_us_2:cp :      0.23s CPU      0.27s WALL (     435 calls)
     cegterg      :     12.14s CPU     12.29s WALL (     203 calls)

     Called by *egterg:
     cdiaghg      :      0.02s CPU      0.02s WALL (    1028 calls)
     h_psi        :     11.75s CPU     12.00s WALL (    1086 calls)
     g_psi        :      0.05s CPU      0.04s WALL (     854 calls)

     Called by h_psi:
     h_psi:calbec :      0.34s CPU      0.36s WALL (    1086 calls)
     vloc_psi     :     11.03s CPU     11.37s WALL (    1086 calls)
     add_vuspsi   :      0.31s CPU      0.25s WALL (    1086 calls)

     General routines
     calbec       :      0.34s CPU      0.35s WALL (    1086 calls)
     fft          :      0.20s CPU      0.18s WALL (      70 calls)
     ffts         :      0.02s CPU      0.02s WALL (       7 calls)
     fftw         :     11.39s CPU     11.66s WALL (    7496 calls)


     PWSCF        :     15.20s CPU     15.50s WALL


   This run was terminated on:  11:34:19   9Jun2024            

=------------------------------------------------------------------------------=
   JOB DONE.
=------------------------------------------------------------------------------=
