
     Program PWSCF v.7.2 starts on  9Jun2024 at 11:33:46 

     This program is part of the open-source Quantum ESPRESSO suite
     for quantum simulation of materials; please cite
         "P. Giannozzi et al., J. Phys.:Condens. Matter 21 395502 (2009);
         "P. Giannozzi et al., J. Phys.:Condens. Matter 29 465901 (2017);
         "P. Giannozzi et al., J. Chem. Phys. 152 154105 (2020);
          URL http://www.quantum-espresso.org", 
     in publications or presentations arising from this work. More details at
     http://www.quantum-espresso.org/quote

     Serial version
     8711 MiB available memory on the printing compute node when the environment starts

     Waiting for input...
     Reading input from standard input

     Current dimensions of program PWSCF are:
     Max number of different atomic species (ntypx) = 10
     Max number of k-points (npk) =  40000
     Max angular momentum in pseudopotentials (lmaxx) =  4


     G-vector sticks info
     --------------------
     sticks:   dense  smooth     PW     G-vecs:    dense   smooth      PW
     Sum        1159    1159    349                26229    26229    4279

     Using Slab Decomposition



     bravais-lattice index     =            2
     lattice parameter (alat)  =      10.2631  a.u.
     unit-cell volume          =     270.2564 (a.u.)^3
     number of atoms/cell      =            2
     number of atomic types    =            1
     number of electrons       =         8.00
     number of Kohn-Sham states=            4
     kinetic-energy cutoff     =      80.0000  Ry
     charge density cutoff     =     320.0000  Ry
     scf convergence threshold =      1.0E-08
     mixing beta               =       0.7000
     number of iterations used =            8  plain     mixing
     Exchange-correlation= PBE
                           (   1   4   3   4   0   0   0)

     celldm(1)=  10.263102  celldm(2)=   0.000000  celldm(3)=   0.000000
     celldm(4)=   0.000000  celldm(5)=   0.000000  celldm(6)=   0.000000

     crystal axes: (cart. coord. in units of alat)
               a(1) = (  -0.500000   0.000000   0.500000 )  
               a(2) = (   0.000000   0.500000   0.500000 )  
               a(3) = (  -0.500000   0.500000   0.000000 )  

     reciprocal axes: (cart. coord. in units 2 pi/alat)
               b(1) = ( -1.000000 -1.000000  1.000000 )  
               b(2) = (  1.000000  1.000000  1.000000 )  
               b(3) = ( -1.000000  1.000000 -1.000000 )  


     PseudoPot. # 1 for Si read from file:
     /home/paolo/project_labqsm/pseudopotentials/Si_ONCV_PBE-1.2.upf
     MD5 check sum: 7f029a58b69e3aa87b46a36c608bf45e
     Pseudo is Norm-conserving, Zval =  4.0
     Generated using ONCVPSP code by D. R. Hamann
     Using radial grid of  602 points,  4 beta functions with: 
                l(1) =   0
                l(2) =   0
                l(3) =   1
                l(4) =   1

     atomic species   valence    mass     pseudopotential
        Si             4.00    28.08500     Si( 1.00)

     48 Sym. Ops., with inversion, found (24 have fractional translation)



   Cartesian axes

     site n.     atom                  positions (alat units)
         1           Si  tau(   1) = (   0.0000000   0.0000000   0.0000000  )
         2           Si  tau(   2) = (   0.2500000   0.2500000   0.2500000  )

     number of k points=    29
                       cart. coord. in units 2pi/alat
        k(    1) = (   0.0000000   0.0000000   0.0000000), wk =   0.0039062
        k(    2) = (  -0.1250000   0.1250000  -0.1250000), wk =   0.0312500
        k(    3) = (  -0.2500000   0.2500000  -0.2500000), wk =   0.0312500
        k(    4) = (  -0.3750000   0.3750000  -0.3750000), wk =   0.0312500
        k(    5) = (   0.5000000  -0.5000000   0.5000000), wk =   0.0156250
        k(    6) = (   0.0000000   0.2500000   0.0000000), wk =   0.0234375
        k(    7) = (  -0.1250000   0.3750000  -0.1250000), wk =   0.0937500
        k(    8) = (  -0.2500000   0.5000000  -0.2500000), wk =   0.0937500
        k(    9) = (   0.6250000  -0.3750000   0.6250000), wk =   0.0937500
        k(   10) = (   0.5000000  -0.2500000   0.5000000), wk =   0.0937500
        k(   11) = (   0.3750000  -0.1250000   0.3750000), wk =   0.0937500
        k(   12) = (   0.2500000   0.0000000   0.2500000), wk =   0.0468750
        k(   13) = (   0.0000000   0.5000000   0.0000000), wk =   0.0234375
        k(   14) = (  -0.1250000   0.6250000  -0.1250000), wk =   0.0937500
        k(   15) = (   0.7500000  -0.2500000   0.7500000), wk =   0.0937500
        k(   16) = (   0.6250000  -0.1250000   0.6250000), wk =   0.0937500
        k(   17) = (   0.5000000   0.0000000   0.5000000), wk =   0.0468750
        k(   18) = (   0.0000000   0.7500000   0.0000000), wk =   0.0234375
        k(   19) = (   0.8750000  -0.1250000   0.8750000), wk =   0.0937500
        k(   20) = (   0.7500000   0.0000000   0.7500000), wk =   0.0468750
        k(   21) = (   0.0000000  -1.0000000   0.0000000), wk =   0.0117188
        k(   22) = (  -0.2500000   0.5000000   0.0000000), wk =   0.0937500
        k(   23) = (   0.6250000  -0.3750000   0.8750000), wk =   0.1875000
        k(   24) = (   0.5000000  -0.2500000   0.7500000), wk =   0.0937500
        k(   25) = (   0.7500000  -0.2500000   1.0000000), wk =   0.0937500
        k(   26) = (   0.6250000  -0.1250000   0.8750000), wk =   0.1875000
        k(   27) = (   0.5000000   0.0000000   0.7500000), wk =   0.0937500
        k(   28) = (  -0.2500000  -1.0000000   0.0000000), wk =   0.0468750
        k(   29) = (  -0.5000000  -1.0000000   0.0000000), wk =   0.0234375

     Dense  grid:    26229 G-vectors     FFT dimensions: (  48,  48,  48)

     Estimated max dynamical RAM per process >      26.49 MB

     Initial potential from superposition of free atoms

     starting charge       7.9075, renormalised to       8.0000
     Starting wfcs are random

     total cpu time spent up to now is        0.4 secs

     Self-consistent Calculation

     iteration #  1     ecut=    80.00 Ry     beta= 0.70
     Davidson diagonalization with overlap
     ethr =  1.00E-02,  avg # of iterations =  8.4

     Threshold (ethr) on eigenvalues was too large:
     Diagonalizing with lowered threshold

     Davidson diagonalization with overlap
     ethr =  5.93E-04,  avg # of iterations =  3.2

     total cpu time spent up to now is        3.1 secs

     total energy              =     -15.76265493 Ry
     estimated scf accuracy    <       0.05242522 Ry

     iteration #  2     ecut=    80.00 Ry     beta= 0.70
     Davidson diagonalization with overlap
     ethr =  6.55E-04,  avg # of iterations =  1.0

     total cpu time spent up to now is        3.7 secs

     total energy              =     -15.76512648 Ry
     estimated scf accuracy    <       0.00240411 Ry

     iteration #  3     ecut=    80.00 Ry     beta= 0.70
     Davidson diagonalization with overlap
     ethr =  3.01E-05,  avg # of iterations =  3.0

     total cpu time spent up to now is        4.6 secs

     total energy              =     -15.76579056 Ry
     estimated scf accuracy    <       0.00004277 Ry

     iteration #  4     ecut=    80.00 Ry     beta= 0.70
     Davidson diagonalization with overlap
     ethr =  5.35E-07,  avg # of iterations =  5.2

     total cpu time spent up to now is        5.8 secs

     total energy              =     -15.76584360 Ry
     estimated scf accuracy    <       0.00000024 Ry

     iteration #  5     ecut=    80.00 Ry     beta= 0.70
     Davidson diagonalization with overlap
     ethr =  2.99E-09,  avg # of iterations =  5.6

     total cpu time spent up to now is        7.2 secs

     total energy              =     -15.76584433 Ry
     estimated scf accuracy    <       0.00000002 Ry

     iteration #  6     ecut=    80.00 Ry     beta= 0.70
     Davidson diagonalization with overlap
     ethr =  2.73E-10,  avg # of iterations =  2.7

     total cpu time spent up to now is        8.1 secs

     End of self-consistent calculation

          k = 0.0000 0.0000 0.0000 (  3287 PWs)   bands (ev):

    -5.7352   6.2211   6.2211   6.2211

          k =-0.1250 0.1250-0.1250 (  3278 PWs)   bands (ev):

    -5.5312   4.6231   5.9343   5.9343

          k =-0.2500 0.2500-0.2500 (  3275 PWs)   bands (ev):

    -4.9361   2.2969   5.4668   5.4668

          k =-0.3750 0.3750-0.3750 (  3272 PWs)   bands (ev):

    -4.0432   0.2785   5.1420   5.1420

          k = 0.5000-0.5000 0.5000 (  3274 PWs)   bands (ev):

    -3.4062  -0.7428   5.0309   5.0309

          k = 0.0000 0.2500 0.0000 (  3271 PWs)   bands (ev):

    -5.4625   4.8845   5.4187   5.4187

          k =-0.1250 0.3750-0.1250 (  3274 PWs)   bands (ev):

    -4.9942   2.9982   4.9094   4.9823

          k =-0.2500 0.5000-0.2500 (  3284 PWs)   bands (ev):

    -4.1799   0.9398   4.3916   4.6430

          k = 0.6250-0.3750 0.6250 (  3263 PWs)   bands (ev):

    -3.3195  -0.5221   3.9469   4.6681

          k = 0.5000-0.2500 0.5000 (  3265 PWs)   bands (ev):

    -3.5637  -0.1519   3.7657   4.9639

          k = 0.3750-0.1250 0.3750 (  3273 PWs)   bands (ev):

    -4.4860   1.5984   3.9166   5.4534

          k = 0.2500 0.0000 0.2500 (  3279 PWs)   bands (ev):

    -5.1953   3.5377   4.5983   5.9315

          k = 0.0000 0.5000 0.0000 (  3263 PWs)   bands (ev):

    -4.6540   2.7026   4.3401   4.3401

          k =-0.1250 0.6250-0.1250 (  3268 PWs)   bands (ev):

    -3.9445   1.2812   3.5586   4.0233

          k = 0.7500-0.2500 0.7500 (  3259 PWs)   bands (ev):

    -3.0193  -0.1588   2.6946   4.0268

          k = 0.6250-0.1250 0.6250 (  3251 PWs)   bands (ev):

    -2.8154  -0.4168   2.2364   4.3447

          k = 0.5000 0.0000 0.5000 (  3250 PWs)   bands (ev):

    -3.6930   0.7427   2.4768   4.9016

          k = 0.0000 0.7500 0.0000 (  3274 PWs)   bands (ev):

    -3.3423   0.4766   3.6261   3.6261

          k = 0.8750-0.1250 0.8750 (  3270 PWs)   bands (ev):

    -2.4456  -0.6075   2.7956   3.5503

          k = 0.7500 0.0000 0.7500 (  3258 PWs)   bands (ev):

    -2.0076  -1.0035   1.9291   3.8074

          k = 0.0000-1.0000 0.0000 (  3282 PWs)   bands (ev):

    -1.5935  -1.5935   3.3813   3.3813

          k =-0.2500 0.5000 0.0000 (  3270 PWs)   bands (ev):

    -4.4068   1.9325   3.5160   4.8003

          k = 0.6250-0.3750 0.8750 (  3263 PWs)   bands (ev):

    -3.5192   0.3824   2.9074   4.3003

          k = 0.5000-0.2500 0.7500 (  3252 PWs)   bands (ev):

    -2.8677  -0.5613   2.7781   4.0714

          k = 0.7500-0.2500 1.0000 (  3264 PWs)   bands (ev):

    -3.1439   0.2580   2.8684   3.4718

          k = 0.6250-0.1250 0.8750 (  3264 PWs)   bands (ev):

    -2.2700  -0.7091   2.1700   3.2710

          k = 0.5000 0.0000 0.7500 (  3259 PWs)   bands (ev):

    -2.6204  -0.3460   2.0031   3.6464

          k =-0.2500-1.0000 0.0000 (  3272 PWs)   bands (ev):

    -1.5157  -1.5157   2.8147   2.8147

          k =-0.5000-1.0000 0.0000 (  3268 PWs)   bands (ev):

    -1.4301  -1.4301   2.3781   2.3781

     highest occupied level (ev):     6.2211

!    total energy              =     -15.76584434 Ry
     estimated scf accuracy    <          3.2E-09 Ry

     The total energy is the sum of the following terms:
     one-electron contribution =       4.74325461 Ry
     hartree contribution      =       1.10236604 Ry
     xc contribution           =      -4.81561321 Ry
     ewald contribution        =     -16.79585178 Ry

     convergence has been achieved in   6 iterations

     Writing all to output data dir ./SCRATCH/silicon.save/

     init_run     :      0.30s CPU      0.37s WALL (       1 calls)
     electrons    :      7.55s CPU      7.72s WALL (       1 calls)

     Called by init_run:
     wfcinit      :      0.25s CPU      0.25s WALL (       1 calls)
     potinit      :      0.03s CPU      0.07s WALL (       1 calls)
     hinit0       :      0.02s CPU      0.02s WALL (       1 calls)

     Called by electrons:
     c_bands      :      6.50s CPU      6.63s WALL (       7 calls)
     sum_band     :      0.83s CPU      0.81s WALL (       7 calls)
     v_of_rho     :      0.25s CPU      0.31s WALL (       7 calls)
     mix_rho      :      0.00s CPU      0.02s WALL (       7 calls)

     Called by c_bands:
     init_us_2    :      0.19s CPU      0.15s WALL (     435 calls)
     init_us_2:cp :      0.19s CPU      0.15s WALL (     435 calls)
     cegterg      :      6.39s CPU      6.42s WALL (     203 calls)

     Called by *egterg:
     cdiaghg      :      0.02s CPU      0.02s WALL (    1019 calls)
     h_psi        :      6.22s CPU      6.23s WALL (    1077 calls)
     g_psi        :      0.02s CPU      0.02s WALL (     845 calls)

     Called by h_psi:
     h_psi:calbec :      0.14s CPU      0.20s WALL (    1077 calls)
     vloc_psi     :      5.86s CPU      5.88s WALL (    1077 calls)
     add_vuspsi   :      0.19s CPU      0.14s WALL (    1077 calls)

     General routines
     calbec       :      0.14s CPU      0.19s WALL (    1077 calls)
     fft          :      0.08s CPU      0.10s WALL (      70 calls)
     ffts         :      0.00s CPU      0.01s WALL (       7 calls)
     fftw         :      5.95s CPU      6.01s WALL (    7512 calls)


     PWSCF        :      7.86s CPU      8.13s WALL


   This run was terminated on:  11:33:54   9Jun2024            

=------------------------------------------------------------------------------=
   JOB DONE.
=------------------------------------------------------------------------------=
