
     Program PWSCF v.7.2 starts on  9Jun2024 at 11:34:36 

     This program is part of the open-source Quantum ESPRESSO suite
     for quantum simulation of materials; please cite
         "P. Giannozzi et al., J. Phys.:Condens. Matter 21 395502 (2009);
         "P. Giannozzi et al., J. Phys.:Condens. Matter 29 465901 (2017);
         "P. Giannozzi et al., J. Chem. Phys. 152 154105 (2020);
          URL http://www.quantum-espresso.org", 
     in publications or presentations arising from this work. More details at
     http://www.quantum-espresso.org/quote

     Serial version
     8859 MiB available memory on the printing compute node when the environment starts

     Waiting for input...
     Reading input from standard input

     Current dimensions of program PWSCF are:
     Max number of different atomic species (ntypx) = 10
     Max number of k-points (npk) =  40000
     Max angular momentum in pseudopotentials (lmaxx) =  4


     G-vector sticks info
     --------------------
     sticks:   dense  smooth     PW     G-vecs:    dense   smooth      PW
     Sum        1213    1213    361                27725    27725    4477

     Using Slab Decomposition



     bravais-lattice index     =            2
     lattice parameter (alat)  =      10.4684  a.u.
     unit-cell volume          =     286.7982 (a.u.)^3
     number of atoms/cell      =            2
     number of atomic types    =            1
     number of electrons       =         8.00
     number of Kohn-Sham states=            4
     kinetic-energy cutoff     =      80.0000  Ry
     charge density cutoff     =     320.0000  Ry
     scf convergence threshold =      1.0E-08
     mixing beta               =       0.7000
     number of iterations used =            8  plain     mixing
     Exchange-correlation= PBE
                           (   1   4   3   4   0   0   0)

     celldm(1)=  10.468364  celldm(2)=   0.000000  celldm(3)=   0.000000
     celldm(4)=   0.000000  celldm(5)=   0.000000  celldm(6)=   0.000000

     crystal axes: (cart. coord. in units of alat)
               a(1) = (  -0.500000   0.000000   0.500000 )  
               a(2) = (   0.000000   0.500000   0.500000 )  
               a(3) = (  -0.500000   0.500000   0.000000 )  

     reciprocal axes: (cart. coord. in units 2 pi/alat)
               b(1) = ( -1.000000 -1.000000  1.000000 )  
               b(2) = (  1.000000  1.000000  1.000000 )  
               b(3) = ( -1.000000  1.000000 -1.000000 )  


     PseudoPot. # 1 for Si read from file:
     /home/paolo/project_labqsm/pseudopotentials/Si_ONCV_PBE-1.2.upf
     MD5 check sum: 7f029a58b69e3aa87b46a36c608bf45e
     Pseudo is Norm-conserving, Zval =  4.0
     Generated using ONCVPSP code by D. R. Hamann
     Using radial grid of  602 points,  4 beta functions with: 
                l(1) =   0
                l(2) =   0
                l(3) =   1
                l(4) =   1

     atomic species   valence    mass     pseudopotential
        Si             4.00    28.08500     Si( 1.00)

     48 Sym. Ops., with inversion, found (24 have fractional translation)



   Cartesian axes

     site n.     atom                  positions (alat units)
         1           Si  tau(   1) = (   0.0000000   0.0000000   0.0000000  )
         2           Si  tau(   2) = (   0.2500000   0.2500000   0.2500000  )

     number of k points=    29
                       cart. coord. in units 2pi/alat
        k(    1) = (   0.0000000   0.0000000   0.0000000), wk =   0.0039062
        k(    2) = (  -0.1250000   0.1250000  -0.1250000), wk =   0.0312500
        k(    3) = (  -0.2500000   0.2500000  -0.2500000), wk =   0.0312500
        k(    4) = (  -0.3750000   0.3750000  -0.3750000), wk =   0.0312500
        k(    5) = (   0.5000000  -0.5000000   0.5000000), wk =   0.0156250
        k(    6) = (   0.0000000   0.2500000   0.0000000), wk =   0.0234375
        k(    7) = (  -0.1250000   0.3750000  -0.1250000), wk =   0.0937500
        k(    8) = (  -0.2500000   0.5000000  -0.2500000), wk =   0.0937500
        k(    9) = (   0.6250000  -0.3750000   0.6250000), wk =   0.0937500
        k(   10) = (   0.5000000  -0.2500000   0.5000000), wk =   0.0937500
        k(   11) = (   0.3750000  -0.1250000   0.3750000), wk =   0.0937500
        k(   12) = (   0.2500000   0.0000000   0.2500000), wk =   0.0468750
        k(   13) = (   0.0000000   0.5000000   0.0000000), wk =   0.0234375
        k(   14) = (  -0.1250000   0.6250000  -0.1250000), wk =   0.0937500
        k(   15) = (   0.7500000  -0.2500000   0.7500000), wk =   0.0937500
        k(   16) = (   0.6250000  -0.1250000   0.6250000), wk =   0.0937500
        k(   17) = (   0.5000000   0.0000000   0.5000000), wk =   0.0468750
        k(   18) = (   0.0000000   0.7500000   0.0000000), wk =   0.0234375
        k(   19) = (   0.8750000  -0.1250000   0.8750000), wk =   0.0937500
        k(   20) = (   0.7500000   0.0000000   0.7500000), wk =   0.0468750
        k(   21) = (   0.0000000  -1.0000000   0.0000000), wk =   0.0117188
        k(   22) = (  -0.2500000   0.5000000   0.0000000), wk =   0.0937500
        k(   23) = (   0.6250000  -0.3750000   0.8750000), wk =   0.1875000
        k(   24) = (   0.5000000  -0.2500000   0.7500000), wk =   0.0937500
        k(   25) = (   0.7500000  -0.2500000   1.0000000), wk =   0.0937500
        k(   26) = (   0.6250000  -0.1250000   0.8750000), wk =   0.1875000
        k(   27) = (   0.5000000   0.0000000   0.7500000), wk =   0.0937500
        k(   28) = (  -0.2500000  -1.0000000   0.0000000), wk =   0.0468750
        k(   29) = (  -0.5000000  -1.0000000   0.0000000), wk =   0.0234375

     Dense  grid:    27725 G-vectors     FFT dimensions: (  48,  48,  48)

     Estimated max dynamical RAM per process >      27.57 MB

     Initial potential from superposition of free atoms

     starting charge       7.9075, renormalised to       8.0000
     Starting wfcs are random

     total cpu time spent up to now is        0.4 secs

     Self-consistent Calculation

     iteration #  1     ecut=    80.00 Ry     beta= 0.70
     Davidson diagonalization with overlap
     ethr =  1.00E-02,  avg # of iterations =  8.6

     Threshold (ethr) on eigenvalues was too large:
     Diagonalizing with lowered threshold

     Davidson diagonalization with overlap
     ethr =  5.55E-04,  avg # of iterations =  3.3

     total cpu time spent up to now is        3.1 secs

     total energy              =     -15.76277353 Ry
     estimated scf accuracy    <       0.04793143 Ry

     iteration #  2     ecut=    80.00 Ry     beta= 0.70
     Davidson diagonalization with overlap
     ethr =  5.99E-04,  avg # of iterations =  1.0

     total cpu time spent up to now is        3.7 secs

     total energy              =     -15.76485820 Ry
     estimated scf accuracy    <       0.00233687 Ry

     iteration #  3     ecut=    80.00 Ry     beta= 0.70
     Davidson diagonalization with overlap
     ethr =  2.92E-05,  avg # of iterations =  2.9

     total cpu time spent up to now is        4.6 secs

     total energy              =     -15.76542645 Ry
     estimated scf accuracy    <       0.00003483 Ry

     iteration #  4     ecut=    80.00 Ry     beta= 0.70
     Davidson diagonalization with overlap
     ethr =  4.35E-07,  avg # of iterations =  5.3

     total cpu time spent up to now is        5.8 secs

     total energy              =     -15.76547661 Ry
     estimated scf accuracy    <       0.00000028 Ry

     iteration #  5     ecut=    80.00 Ry     beta= 0.70
     Davidson diagonalization with overlap
     ethr =  3.50E-09,  avg # of iterations =  5.5

     total cpu time spent up to now is        7.1 secs

     total energy              =     -15.76547745 Ry
     estimated scf accuracy    <       0.00000003 Ry

     iteration #  6     ecut=    80.00 Ry     beta= 0.70
     Davidson diagonalization with overlap
     ethr =  3.78E-10,  avg # of iterations =  2.9

     total cpu time spent up to now is        8.0 secs

     End of self-consistent calculation

          k = 0.0000 0.0000 0.0000 (  3479 PWs)   bands (ev):

    -5.9413   5.6173   5.6173   5.6173

          k =-0.1250 0.1250-0.1250 (  3488 PWs)   bands (ev):

    -5.7476   4.0308   5.3470   5.3470

          k =-0.2500 0.2500-0.2500 (  3461 PWs)   bands (ev):

    -5.1837   1.7940   4.9000   4.9000

          k =-0.3750 0.3750-0.3750 (  3458 PWs)   bands (ev):

    -4.3443  -0.1255   4.5861   4.5861

          k = 0.5000-0.5000 0.5000 (  3444 PWs)   bands (ev):

    -3.7582  -1.0800   4.4781   4.4781

          k = 0.0000 0.2500 0.0000 (  3487 PWs)   bands (ev):

    -5.6822   4.2193   4.8671   4.8671

          k =-0.1250 0.3750-0.1250 (  3473 PWs)   bands (ev):

    -5.2380   2.4325   4.3825   4.4225

          k =-0.2500 0.5000-0.2500 (  3476 PWs)   bands (ev):

    -4.4694   0.4816   3.8531   4.1242

          k = 0.6250-0.3750 0.6250 (  3468 PWs)   bands (ev):

    -3.6709  -0.8892   3.4316   4.1422

          k = 0.5000-0.2500 0.5000 (  3467 PWs)   bands (ev):

    -3.8952  -0.5449   3.2682   4.4186

          k = 0.3750-0.1250 0.3750 (  3472 PWs)   bands (ev):

    -4.7579   1.1042   3.4289   4.8807

          k = 0.2500 0.0000 0.2500 (  3465 PWs)   bands (ev):

    -5.4288   2.9483   4.0978   5.3344

          k = 0.0000 0.5000 0.0000 (  3479 PWs)   bands (ev):

    -4.9146   2.0845   3.8438   3.8438

          k =-0.1250 0.6250-0.1250 (  3470 PWs)   bands (ev):

    -4.2428   0.7367   3.1028   3.5405

          k = 0.7500-0.2500 0.7500 (  3454 PWs)   bands (ev):

    -3.3761  -0.6109   2.2817   3.5406

          k = 0.6250-0.1250 0.6250 (  3467 PWs)   bands (ev):

    -3.1915  -0.8459   1.8541   3.8390

          k = 0.5000 0.0000 0.5000 (  3463 PWs)   bands (ev):

    -4.0100   0.2408   2.0955   4.3629

          k = 0.0000 0.7500 0.0000 (  3455 PWs)   bands (ev):

    -3.6701  -0.0460   3.1630   3.1630

          k = 0.8750-0.1250 0.8750 (  3452 PWs)   bands (ev):

    -2.8235  -1.0786   2.3970   3.0897

          k = 0.7500 0.0000 0.7500 (  3444 PWs)   bands (ev):

    -2.4276  -1.4435   1.5956   3.3323

          k = 0.0000-1.0000 0.0000 (  3490 PWs)   bands (ev):

    -2.0118  -2.0118   2.9293   2.9293

          k =-0.2500 0.5000 0.0000 (  3479 PWs)   bands (ev):

    -4.6816   1.3760   3.0731   4.2672

          k = 0.6250-0.3750 0.8750 (  3471 PWs)   bands (ev):

    -3.8464  -0.0853   2.4763   3.8049

          k = 0.5000-0.2500 0.7500 (  3456 PWs)   bands (ev):

    -3.2446  -0.9592   2.3403   3.5938

          k = 0.7500-0.2500 1.0000 (  3464 PWs)   bands (ev):

    -3.4863  -0.2542   2.4615   3.0342

          k = 0.6250-0.1250 0.8750 (  3457 PWs)   bands (ev):

    -2.6708  -1.1676   1.8125   2.8466

          k = 0.5000 0.0000 0.7500 (  3471 PWs)   bands (ev):

    -3.0018  -0.8195   1.6578   3.1967

          k =-0.2500-1.0000 0.0000 (  3448 PWs)   bands (ev):

    -1.9454  -1.9454   2.4159   2.4159

          k =-0.5000-1.0000 0.0000 (  3448 PWs)   bands (ev):

    -1.8733  -1.8733   2.0179   2.0179

     highest occupied level (ev):     5.6173

!    total energy              =     -15.76547746 Ry
     estimated scf accuracy    <          2.0E-09 Ry

     The total energy is the sum of the following terms:
     one-electron contribution =       4.30091870 Ry
     hartree contribution      =       1.15454795 Ry
     xc contribution           =      -4.75442276 Ry
     ewald contribution        =     -16.46652136 Ry

     convergence has been achieved in   6 iterations

     Writing all to output data dir ./SCRATCH/silicon.save/

     init_run     :      0.33s CPU      0.36s WALL (       1 calls)
     electrons    :      7.50s CPU      7.63s WALL (       1 calls)

     Called by init_run:
     wfcinit      :      0.25s CPU      0.25s WALL (       1 calls)
     potinit      :      0.03s CPU      0.06s WALL (       1 calls)
     hinit0       :      0.02s CPU      0.02s WALL (       1 calls)

     Called by electrons:
     c_bands      :      6.52s CPU      6.54s WALL (       7 calls)
     sum_band     :      0.78s CPU      0.81s WALL (       7 calls)
     v_of_rho     :      0.22s CPU      0.30s WALL (       7 calls)
     mix_rho      :      0.02s CPU      0.02s WALL (       7 calls)

     Called by c_bands:
     init_us_2    :      0.17s CPU      0.16s WALL (     435 calls)
     init_us_2:cp :      0.17s CPU      0.15s WALL (     435 calls)
     cegterg      :      6.33s CPU      6.33s WALL (     203 calls)

     Called by *egterg:
     cdiaghg      :      0.03s CPU      0.02s WALL (    1028 calls)
     h_psi        :      6.17s CPU      6.13s WALL (    1086 calls)
     g_psi        :      0.05s CPU      0.02s WALL (     854 calls)

     Called by h_psi:
     h_psi:calbec :      0.31s CPU      0.20s WALL (    1086 calls)
     vloc_psi     :      5.73s CPU      5.76s WALL (    1086 calls)
     add_vuspsi   :      0.09s CPU      0.14s WALL (    1086 calls)

     General routines
     calbec       :      0.31s CPU      0.19s WALL (    1086 calls)
     fft          :      0.06s CPU      0.10s WALL (      70 calls)
     ffts         :      0.00s CPU      0.01s WALL (       7 calls)
     fftw         :      5.91s CPU      5.90s WALL (    7556 calls)


     PWSCF        :      7.84s CPU      8.02s WALL


   This run was terminated on:  11:34:44   9Jun2024            

=------------------------------------------------------------------------------=
   JOB DONE.
=------------------------------------------------------------------------------=
