
     Program PWSCF v.7.2 starts on 16May2024 at  9:55:26 

     This program is part of the open-source Quantum ESPRESSO suite
     for quantum simulation of materials; please cite
         "P. Giannozzi et al., J. Phys.:Condens. Matter 21 395502 (2009);
         "P. Giannozzi et al., J. Phys.:Condens. Matter 29 465901 (2017);
         "P. Giannozzi et al., J. Chem. Phys. 152 154105 (2020);
          URL http://www.quantum-espresso.org", 
     in publications or presentations arising from this work. More details at
     http://www.quantum-espresso.org/quote

     Serial version
     9033 MiB available memory on the printing compute node when the environment starts

     Waiting for input...
     Reading input from standard input

     Current dimensions of program PWSCF are:
     Max number of different atomic species (ntypx) = 10
     Max number of k-points (npk) =  40000
     Max angular momentum in pseudopotentials (lmaxx) =  4


     G-vector sticks info
     --------------------
     sticks:   dense  smooth     PW     G-vecs:    dense   smooth      PW
     Sum         733     733    223                12939    12939    2229

     Using Slab Decomposition



     bravais-lattice index     =            2
     lattice parameter (alat)  =      10.2631  a.u.
     unit-cell volume          =     270.2564 (a.u.)^3
     number of atoms/cell      =            2
     number of atomic types    =            1
     number of electrons       =         8.00
     number of Kohn-Sham states=            4
     kinetic-energy cutoff     =      50.0000  Ry
     charge density cutoff     =     200.0000  Ry
     scf convergence threshold =      1.0E-08
     mixing beta               =       0.7000
     number of iterations used =            8  plain     mixing
     Exchange-correlation=  SLA  PZ   NOGX NOGC
                           (   1   1   0   0   0   0   0)

     celldm(1)=  10.263102  celldm(2)=   0.000000  celldm(3)=   0.000000
     celldm(4)=   0.000000  celldm(5)=   0.000000  celldm(6)=   0.000000

     crystal axes: (cart. coord. in units of alat)
               a(1) = (  -0.500000   0.000000   0.500000 )  
               a(2) = (   0.000000   0.500000   0.500000 )  
               a(3) = (  -0.500000   0.500000   0.000000 )  

     reciprocal axes: (cart. coord. in units 2 pi/alat)
               b(1) = ( -1.000000 -1.000000  1.000000 )  
               b(2) = (  1.000000  1.000000  1.000000 )  
               b(3) = ( -1.000000  1.000000 -1.000000 )  


     PseudoPot. # 1 for Si read from file:
     /home/paolo/project_labqsm/pseudopotentials/Si.pz-vbc.UPF
     MD5 check sum: dc3b11d017da532b29132e08c0a6883c
     Pseudo is Norm-conserving, Zval =  4.0
     Generated by new atomic code, or converted to UPF format
     Using radial grid of  431 points,  2 beta functions with: 
                l(1) =   0
                l(2) =   1

     atomic species   valence    mass     pseudopotential
        Si             4.00    28.08500     Si( 1.00)

     48 Sym. Ops., with inversion, found (24 have fractional translation)



   Cartesian axes

     site n.     atom                  positions (alat units)
         1           Si  tau(   1) = (   0.0000000   0.0000000   0.0000000  )
         2           Si  tau(   2) = (   0.2500000   0.2500000   0.2500000  )

     number of k points=    29
                       cart. coord. in units 2pi/alat
        k(    1) = (   0.0000000   0.0000000   0.0000000), wk =   0.0039062
        k(    2) = (  -0.1250000   0.1250000  -0.1250000), wk =   0.0312500
        k(    3) = (  -0.2500000   0.2500000  -0.2500000), wk =   0.0312500
        k(    4) = (  -0.3750000   0.3750000  -0.3750000), wk =   0.0312500
        k(    5) = (   0.5000000  -0.5000000   0.5000000), wk =   0.0156250
        k(    6) = (   0.0000000   0.2500000   0.0000000), wk =   0.0234375
        k(    7) = (  -0.1250000   0.3750000  -0.1250000), wk =   0.0937500
        k(    8) = (  -0.2500000   0.5000000  -0.2500000), wk =   0.0937500
        k(    9) = (   0.6250000  -0.3750000   0.6250000), wk =   0.0937500
        k(   10) = (   0.5000000  -0.2500000   0.5000000), wk =   0.0937500
        k(   11) = (   0.3750000  -0.1250000   0.3750000), wk =   0.0937500
        k(   12) = (   0.2500000   0.0000000   0.2500000), wk =   0.0468750
        k(   13) = (   0.0000000   0.5000000   0.0000000), wk =   0.0234375
        k(   14) = (  -0.1250000   0.6250000  -0.1250000), wk =   0.0937500
        k(   15) = (   0.7500000  -0.2500000   0.7500000), wk =   0.0937500
        k(   16) = (   0.6250000  -0.1250000   0.6250000), wk =   0.0937500
        k(   17) = (   0.5000000   0.0000000   0.5000000), wk =   0.0468750
        k(   18) = (   0.0000000   0.7500000   0.0000000), wk =   0.0234375
        k(   19) = (   0.8750000  -0.1250000   0.8750000), wk =   0.0937500
        k(   20) = (   0.7500000   0.0000000   0.7500000), wk =   0.0468750
        k(   21) = (   0.0000000  -1.0000000   0.0000000), wk =   0.0117188
        k(   22) = (  -0.2500000   0.5000000   0.0000000), wk =   0.0937500
        k(   23) = (   0.6250000  -0.3750000   0.8750000), wk =   0.1875000
        k(   24) = (   0.5000000  -0.2500000   0.7500000), wk =   0.0937500
        k(   25) = (   0.7500000  -0.2500000   1.0000000), wk =   0.0937500
        k(   26) = (   0.6250000  -0.1250000   0.8750000), wk =   0.1875000
        k(   27) = (   0.5000000   0.0000000   0.7500000), wk =   0.0937500
        k(   28) = (  -0.2500000  -1.0000000   0.0000000), wk =   0.0468750
        k(   29) = (  -0.5000000  -1.0000000   0.0000000), wk =   0.0234375

     Dense  grid:    12939 G-vectors     FFT dimensions: (  36,  36,  36)

     Estimated max dynamical RAM per process >      12.23 MB

     Initial potential from superposition of free atoms

     starting charge       7.9990, renormalised to       8.0000
     Starting wfcs are    8 randomized atomic wfcs

     total cpu time spent up to now is        1.7 secs

     Self-consistent Calculation

     iteration #  1     ecut=    50.00 Ry     beta= 0.70
     Davidson diagonalization with overlap
     ethr =  1.00E-02,  avg # of iterations =  2.0

     Threshold (ethr) on eigenvalues was too large:
     Diagonalizing with lowered threshold

     Davidson diagonalization with overlap
     ethr =  6.73E-04,  avg # of iterations =  1.2

     total cpu time spent up to now is        2.2 secs

     total energy              =     -15.84950942 Ry
     estimated scf accuracy    <       0.05930848 Ry

     iteration #  2     ecut=    50.00 Ry     beta= 0.70
     Davidson diagonalization with overlap
     ethr =  7.41E-04,  avg # of iterations =  1.0

     total cpu time spent up to now is        2.5 secs

     total energy              =     -15.85256300 Ry
     estimated scf accuracy    <       0.00220869 Ry

     iteration #  3     ecut=    50.00 Ry     beta= 0.70
     Davidson diagonalization with overlap
     ethr =  2.76E-05,  avg # of iterations =  2.3

     total cpu time spent up to now is        2.8 secs

     total energy              =     -15.85303097 Ry
     estimated scf accuracy    <       0.00007118 Ry

     iteration #  4     ecut=    50.00 Ry     beta= 0.70
     Davidson diagonalization with overlap
     ethr =  8.90E-07,  avg # of iterations =  2.8

     total cpu time spent up to now is        3.1 secs

     total energy              =     -15.85306132 Ry
     estimated scf accuracy    <       0.00000228 Ry

     iteration #  5     ecut=    50.00 Ry     beta= 0.70
     Davidson diagonalization with overlap
     ethr =  2.85E-08,  avg # of iterations =  3.8

     total cpu time spent up to now is        3.5 secs

     total energy              =     -15.85306290 Ry
     estimated scf accuracy    <       0.00000010 Ry

     iteration #  6     ecut=    50.00 Ry     beta= 0.70
     Davidson diagonalization with overlap
     ethr =  1.23E-09,  avg # of iterations =  3.5

     total cpu time spent up to now is        3.9 secs

     total energy              =     -15.85306295 Ry
     estimated scf accuracy    <       0.00000001 Ry

     iteration #  7     ecut=    50.00 Ry     beta= 0.70
     Davidson diagonalization with overlap
     ethr =  1.37E-10,  avg # of iterations =  2.4

     total cpu time spent up to now is        4.3 secs

     End of self-consistent calculation

          k = 0.0000 0.0000 0.0000 (  1639 PWs)   bands (ev):

    -5.8877   6.0372   6.0372   6.0372

          k =-0.1250 0.1250-0.1250 (  1606 PWs)   bands (ev):

    -5.6835   4.4417   5.7489   5.7489

          k =-0.2500 0.2500-0.2500 (  1618 PWs)   bands (ev):

    -5.0873   2.1170   5.2787   5.2787

          k =-0.3750 0.3750-0.3750 (  1610 PWs)   bands (ev):

    -4.1899   0.0948   4.9518   4.9518

          k = 0.5000-0.5000 0.5000 (  1622 PWs)   bands (ev):

    -3.5441  -0.9353   4.8400   4.8400

          k = 0.0000 0.2500 0.0000 (  1603 PWs)   bands (ev):

    -5.6148   4.7098   5.2314   5.2314

          k =-0.1250 0.3750-0.1250 (  1605 PWs)   bands (ev):

    -5.1458   2.8244   4.7194   4.7940

          k =-0.2500 0.5000-0.2500 (  1614 PWs)   bands (ev):

    -4.3289   0.7632   4.2013   4.4511

          k = 0.6250-0.3750 0.6250 (  1609 PWs)   bands (ev):

    -3.4598  -0.7076   3.7550   4.4759

          k = 0.5000-0.2500 0.5000 (  1614 PWs)   bands (ev):

    -3.7074  -0.3339   3.5722   4.7729

          k = 0.3750-0.1250 0.3750 (  1614 PWs)   bands (ev):

    -4.6361   1.4236   3.7216   5.2648

          k = 0.2500 0.0000 0.2500 (  1608 PWs)   bands (ev):

    -5.3472   3.3639   4.4040   5.7455

          k = 0.0000 0.5000 0.0000 (  1612 PWs)   bands (ev):

    -4.8057   2.5431   4.1472   4.1472

          k =-0.1250 0.6250-0.1250 (  1616 PWs)   bands (ev):

    -4.0949   1.1235   3.3597   3.8284

          k = 0.7500-0.2500 0.7500 (  1617 PWs)   bands (ev):

    -3.1643  -0.3222   2.4912   3.8316

          k = 0.6250-0.1250 0.6250 (  1611 PWs)   bands (ev):

    -2.9565  -0.5837   2.0289   4.1510

          k = 0.5000 0.0000 0.5000 (  1604 PWs)   bands (ev):

    -3.8405   0.5816   2.2674   4.7106

          k = 0.0000 0.7500 0.0000 (  1624 PWs)   bands (ev):

    -3.4929   0.3253   3.4288   3.4288

          k = 0.8750-0.1250 0.8750 (  1625 PWs)   bands (ev):

    -2.5941  -0.7566   2.5884   3.3525

          k = 0.7500 0.0000 0.7500 (  1624 PWs)   bands (ev):

    -2.1481  -1.1562   1.7113   3.6109

          k = 0.0000-1.0000 0.0000 (  1604 PWs)   bands (ev):

    -1.7431  -1.7431   3.1824   3.1824

          k =-0.2500 0.5000 0.0000 (  1610 PWs)   bands (ev):

    -4.5574   1.7693   3.3147   4.6097

          k = 0.6250-0.3750 0.8750 (  1618 PWs)   bands (ev):

    -3.6661   0.2158   2.7067   4.1052

          k = 0.5000-0.2500 0.7500 (  1614 PWs)   bands (ev):

    -3.0071  -0.7367   2.5794   3.8740

          k = 0.7500-0.2500 1.0000 (  1613 PWs)   bands (ev):

    -3.2925   0.1073   2.6625   3.2699

          k = 0.6250-0.1250 0.8750 (  1613 PWs)   bands (ev):

    -2.4127  -0.8607   1.9568   3.0671

          k = 0.5000 0.0000 0.7500 (  1616 PWs)   bands (ev):

    -2.7636  -0.4988   1.7878   3.4457

          k =-0.2500-1.0000 0.0000 (  1626 PWs)   bands (ev):

    -1.6626  -1.6626   2.6075   2.6075

          k =-0.5000-1.0000 0.0000 (  1628 PWs)   bands (ev):

    -1.5735  -1.5735   2.1645   2.1645

     highest occupied level (ev):     6.0372

!    total energy              =     -15.85306295 Ry
     estimated scf accuracy    <          2.8E-11 Ry

     The total energy is the sum of the following terms:
     one-electron contribution =       4.64507147 Ry
     hartree contribution      =       1.09490702 Ry
     xc contribution           =      -4.79718962 Ry
     ewald contribution        =     -16.79585182 Ry

     convergence has been achieved in   7 iterations

     Writing all to output data dir ./SCRATCH/silicon.save/

     init_run     :      0.20s CPU      0.76s WALL (       1 calls)
     electrons    :      2.53s CPU      2.59s WALL (       1 calls)

     Called by init_run:
     wfcinit      :      0.20s CPU      0.48s WALL (       1 calls)
     potinit      :      0.00s CPU      0.02s WALL (       1 calls)
     hinit0       :      0.00s CPU      0.22s WALL (       1 calls)

     Called by electrons:
     c_bands      :      2.08s CPU      2.17s WALL (       8 calls)
     sum_band     :      0.42s CPU      0.39s WALL (       8 calls)
     v_of_rho     :      0.00s CPU      0.04s WALL (       8 calls)
     mix_rho      :      0.03s CPU      0.01s WALL (       8 calls)

     Called by c_bands:
     init_us_2    :      0.08s CPU      0.10s WALL (     493 calls)
     init_us_2:cp :      0.08s CPU      0.10s WALL (     493 calls)
     cegterg      :      2.02s CPU      2.07s WALL (     232 calls)

     Called by *egterg:
     cdiaghg      :      0.02s CPU      0.25s WALL (     753 calls)
     h_psi        :      1.97s CPU      2.07s WALL (     811 calls)
     g_psi        :      0.00s CPU      0.01s WALL (     550 calls)

     Called by h_psi:
     h_psi:calbec :      0.03s CPU      0.06s WALL (     811 calls)
     vloc_psi     :      1.91s CPU      1.95s WALL (     811 calls)
     add_vuspsi   :      0.03s CPU      0.03s WALL (     811 calls)

     General routines
     calbec       :      0.03s CPU      0.06s WALL (     811 calls)
     fft          :      0.02s CPU      0.01s WALL (      24 calls)
     ffts         :      0.00s CPU      0.00s WALL (       8 calls)
     fftw         :      2.08s CPU      2.04s WALL (    6780 calls)


     PWSCF        :      2.75s CPU      4.28s WALL


   This run was terminated on:   9:55:30  16May2024            

=------------------------------------------------------------------------------=
   JOB DONE.
=------------------------------------------------------------------------------=
