
     Program PWSCF v.7.2 starts on 12May2024 at 12: 5:26 

     This program is part of the open-source Quantum ESPRESSO suite
     for quantum simulation of materials; please cite
         "P. Giannozzi et al., J. Phys.:Condens. Matter 21 395502 (2009);
         "P. Giannozzi et al., J. Phys.:Condens. Matter 29 465901 (2017);
         "P. Giannozzi et al., J. Chem. Phys. 152 154105 (2020);
          URL http://www.quantum-espresso.org", 
     in publications or presentations arising from this work. More details at
     http://www.quantum-espresso.org/quote

     Serial version
     8800 MiB available memory on the printing compute node when the environment starts

     Waiting for input...
     Reading input from standard input

     Current dimensions of program PWSCF are:
     Max number of different atomic species (ntypx) = 10
     Max number of k-points (npk) =  40000
     Max angular momentum in pseudopotentials (lmaxx) =  4


     G-vector sticks info
     --------------------
     sticks:   dense  smooth     PW     G-vecs:    dense   smooth      PW
     Sum        1813    1813    511                51109    51109    7799

     Using Slab Decomposition



     bravais-lattice index     =            2
     lattice parameter (alat)  =      10.4684  a.u.
     unit-cell volume          =     286.7982 (a.u.)^3
     number of atoms/cell      =            2
     number of atomic types    =            1
     number of electrons       =         8.00
     number of Kohn-Sham states=            4
     kinetic-energy cutoff     =     120.0000  Ry
     charge density cutoff     =     480.0000  Ry
     scf convergence threshold =      1.0E-08
     mixing beta               =       0.7000
     number of iterations used =            8  plain     mixing
     Exchange-correlation=  SLA  PZ   NOGX NOGC
                           (   1   1   0   0   0   0   0)

     celldm(1)=  10.468364  celldm(2)=   0.000000  celldm(3)=   0.000000
     celldm(4)=   0.000000  celldm(5)=   0.000000  celldm(6)=   0.000000

     crystal axes: (cart. coord. in units of alat)
               a(1) = (  -0.500000   0.000000   0.500000 )  
               a(2) = (   0.000000   0.500000   0.500000 )  
               a(3) = (  -0.500000   0.500000   0.000000 )  

     reciprocal axes: (cart. coord. in units 2 pi/alat)
               b(1) = ( -1.000000 -1.000000  1.000000 )  
               b(2) = (  1.000000  1.000000  1.000000 )  
               b(3) = ( -1.000000  1.000000 -1.000000 )  


     PseudoPot. # 1 for Si read from file:
     /home/paolo/project_labqsm/pseudopotentials/Si.pz-vbc.UPF
     MD5 check sum: dc3b11d017da532b29132e08c0a6883c
     Pseudo is Norm-conserving, Zval =  4.0
     Generated by new atomic code, or converted to UPF format
     Using radial grid of  431 points,  2 beta functions with: 
                l(1) =   0
                l(2) =   1

     atomic species   valence    mass     pseudopotential
        Si             4.00    12.01100     Si( 1.00)

     48 Sym. Ops., with inversion, found (24 have fractional translation)



   Cartesian axes

     site n.     atom                  positions (alat units)
         1           Si  tau(   1) = (   0.0000000   0.0000000   0.0000000  )
         2           Si  tau(   2) = (   0.2500000   0.2500000   0.2500000  )

     number of k points=    29
                       cart. coord. in units 2pi/alat
        k(    1) = (   0.0000000   0.0000000   0.0000000), wk =   0.0039062
        k(    2) = (  -0.1250000   0.1250000  -0.1250000), wk =   0.0312500
        k(    3) = (  -0.2500000   0.2500000  -0.2500000), wk =   0.0312500
        k(    4) = (  -0.3750000   0.3750000  -0.3750000), wk =   0.0312500
        k(    5) = (   0.5000000  -0.5000000   0.5000000), wk =   0.0156250
        k(    6) = (   0.0000000   0.2500000   0.0000000), wk =   0.0234375
        k(    7) = (  -0.1250000   0.3750000  -0.1250000), wk =   0.0937500
        k(    8) = (  -0.2500000   0.5000000  -0.2500000), wk =   0.0937500
        k(    9) = (   0.6250000  -0.3750000   0.6250000), wk =   0.0937500
        k(   10) = (   0.5000000  -0.2500000   0.5000000), wk =   0.0937500
        k(   11) = (   0.3750000  -0.1250000   0.3750000), wk =   0.0937500
        k(   12) = (   0.2500000   0.0000000   0.2500000), wk =   0.0468750
        k(   13) = (   0.0000000   0.5000000   0.0000000), wk =   0.0234375
        k(   14) = (  -0.1250000   0.6250000  -0.1250000), wk =   0.0937500
        k(   15) = (   0.7500000  -0.2500000   0.7500000), wk =   0.0937500
        k(   16) = (   0.6250000  -0.1250000   0.6250000), wk =   0.0937500
        k(   17) = (   0.5000000   0.0000000   0.5000000), wk =   0.0468750
        k(   18) = (   0.0000000   0.7500000   0.0000000), wk =   0.0234375
        k(   19) = (   0.8750000  -0.1250000   0.8750000), wk =   0.0937500
        k(   20) = (   0.7500000   0.0000000   0.7500000), wk =   0.0468750
        k(   21) = (   0.0000000  -1.0000000   0.0000000), wk =   0.0117188
        k(   22) = (  -0.2500000   0.5000000   0.0000000), wk =   0.0937500
        k(   23) = (   0.6250000  -0.3750000   0.8750000), wk =   0.1875000
        k(   24) = (   0.5000000  -0.2500000   0.7500000), wk =   0.0937500
        k(   25) = (   0.7500000  -0.2500000   1.0000000), wk =   0.0937500
        k(   26) = (   0.6250000  -0.1250000   0.8750000), wk =   0.1875000
        k(   27) = (   0.5000000   0.0000000   0.7500000), wk =   0.0937500
        k(   28) = (  -0.2500000  -1.0000000   0.0000000), wk =   0.0468750
        k(   29) = (  -0.5000000  -1.0000000   0.0000000), wk =   0.0234375

     Dense  grid:    51109 G-vectors     FFT dimensions: (  60,  60,  60)

     Estimated max dynamical RAM per process >      50.22 MB

     Initial potential from superposition of free atoms

     starting charge       7.9990, renormalised to       8.0000
     Starting wfcs are    8 randomized atomic wfcs

     total cpu time spent up to now is        1.1 secs

     Self-consistent Calculation

     iteration #  1     ecut=   120.00 Ry     beta= 0.70
     Davidson diagonalization with overlap
     ethr =  1.00E-02,  avg # of iterations =  2.0

     Threshold (ethr) on eigenvalues was too large:
     Diagonalizing with lowered threshold

     Davidson diagonalization with overlap
     ethr =  6.02E-04,  avg # of iterations =  1.3

     total cpu time spent up to now is        3.8 secs

     total energy              =     -15.84594373 Ry
     estimated scf accuracy    <       0.05304119 Ry

     iteration #  2     ecut=   120.00 Ry     beta= 0.70
     Davidson diagonalization with overlap
     ethr =  6.63E-04,  avg # of iterations =  1.0

     total cpu time spent up to now is        4.9 secs

     total energy              =     -15.84830873 Ry
     estimated scf accuracy    <       0.00221143 Ry

     iteration #  3     ecut=   120.00 Ry     beta= 0.70
     Davidson diagonalization with overlap
     ethr =  2.76E-05,  avg # of iterations =  2.2

     total cpu time spent up to now is        6.3 secs

     total energy              =     -15.84870398 Ry
     estimated scf accuracy    <       0.00006254 Ry

     iteration #  4     ecut=   120.00 Ry     beta= 0.70
     Davidson diagonalization with overlap
     ethr =  7.82E-07,  avg # of iterations =  3.1

     total cpu time spent up to now is        8.0 secs

     total energy              =     -15.84873515 Ry
     estimated scf accuracy    <       0.00000154 Ry

     iteration #  5     ecut=   120.00 Ry     beta= 0.70
     Davidson diagonalization with overlap
     ethr =  1.93E-08,  avg # of iterations =  4.0

     total cpu time spent up to now is       10.0 secs

     total energy              =     -15.84873642 Ry
     estimated scf accuracy    <       0.00000006 Ry

     iteration #  6     ecut=   120.00 Ry     beta= 0.70
     Davidson diagonalization with overlap
     ethr =  7.74E-10,  avg # of iterations =  3.7

     total cpu time spent up to now is       11.9 secs

     total energy              =     -15.84873646 Ry
     estimated scf accuracy    <       0.00000001 Ry

     iteration #  7     ecut=   120.00 Ry     beta= 0.70
     Davidson diagonalization with overlap
     ethr =  1.86E-10,  avg # of iterations =  2.2

     total cpu time spent up to now is       13.4 secs

     End of self-consistent calculation

          k = 0.0000 0.0000 0.0000 (  6375 PWs)   bands (ev):

    -6.0924   5.4390   5.4390   5.4390

          k =-0.1250 0.1250-0.1250 (  6354 PWs)   bands (ev):

    -5.8984   3.8535   5.1671   5.1671

          k =-0.2500 0.2500-0.2500 (  6345 PWs)   bands (ev):

    -5.3332   1.6177   4.7176   4.7176

          k =-0.3750 0.3750-0.3750 (  6366 PWs)   bands (ev):

    -4.4890  -0.3060   4.4019   4.4019

          k = 0.5000-0.5000 0.5000 (  6394 PWs)   bands (ev):

    -3.8945  -1.2687   4.2933   4.2933

          k = 0.0000 0.2500 0.0000 (  6355 PWs)   bands (ev):

    -5.8330   4.0488   4.6846   4.6846

          k =-0.1250 0.3750-0.1250 (  6346 PWs)   bands (ev):

    -5.3879   2.2631   4.1973   4.2374

          k =-0.2500 0.5000-0.2500 (  6343 PWs)   bands (ev):

    -4.6163   0.3089   3.6653   3.9374

          k = 0.6250-0.3750 0.6250 (  6359 PWs)   bands (ev):

    -3.8094  -1.0708   3.2419   3.9555

          k = 0.5000-0.2500 0.5000 (  6365 PWs)   bands (ev):

    -4.0369  -0.7231   3.0768   4.2334

          k = 0.3750-0.1250 0.3750 (  6369 PWs)   bands (ev):

    -4.9061   0.9335   3.2360   4.6981

          k = 0.2500 0.0000 0.2500 (  6317 PWs)   bands (ev):

    -5.5791   2.7786   3.9067   5.1545

          k = 0.0000 0.5000 0.0000 (  6374 PWs)   bands (ev):

    -5.0644   1.9286   3.6556   3.6556

          k =-0.1250 0.6250-0.1250 (  6351 PWs)   bands (ev):

    -4.3910   0.5829   2.9065   3.3504

          k = 0.7500-0.2500 0.7500 (  6359 PWs)   bands (ev):

    -3.5187  -0.7701   2.0791   3.3504

          k = 0.6250-0.1250 0.6250 (  6379 PWs)   bands (ev):

    -3.3305  -1.0084   1.6470   3.6506

          k = 0.5000 0.0000 0.5000 (  6375 PWs)   bands (ev):

    -4.1553   0.0833   1.8872   4.1775

          k = 0.0000 0.7500 0.0000 (  6374 PWs)   bands (ev):

    -3.8182  -0.1940   2.9706   2.9706

          k = 0.8750-0.1250 0.8750 (  6371 PWs)   bands (ev):

    -2.9693  -1.2247   2.1926   2.8967

          k = 0.7500 0.0000 0.7500 (  6343 PWs)   bands (ev):

    -2.5659  -1.5930   1.3795   3.1408

          k = 0.0000-1.0000 0.0000 (  6386 PWs)   bands (ev):

    -2.1585  -2.1585   2.7352   2.7352

          k =-0.2500 0.5000 0.0000 (  6357 PWs)   bands (ev):

    -4.8303   1.2167   2.8742   4.0811

          k = 0.6250-0.3750 0.8750 (  6371 PWs)   bands (ev):

    -3.9910  -0.2477   2.2763   3.6141

          k = 0.5000-0.2500 0.7500 (  6382 PWs)   bands (ev):

    -3.3822  -1.1298   2.1420   3.4008

          k = 0.7500-0.2500 1.0000 (  6363 PWs)   bands (ev):

    -3.6324  -0.4017   2.2580   2.8361

          k = 0.6250-0.1250 0.8750 (  6378 PWs)   bands (ev):

    -2.8111  -1.3160   1.6006   2.6460

          k = 0.5000 0.0000 0.7500 (  6378 PWs)   bands (ev):

    -3.1427  -0.9690   1.4437   2.9995

          k =-0.2500-1.0000 0.0000 (  6384 PWs)   bands (ev):

    -2.0895  -2.0895   2.2115   2.2115

          k =-0.5000-1.0000 0.0000 (  6352 PWs)   bands (ev):

    -2.0142  -2.0142   1.8063   1.8063

     highest occupied level (ev):     5.4390

!    total energy              =     -15.84873646 Ry
     estimated scf accuracy    <          9.6E-12 Ry

     The total energy is the sum of the following terms:
     one-electron contribution =       4.20683461 Ry
     hartree contribution      =       1.14499665 Ry
     xc contribution           =      -4.73404636 Ry
     ewald contribution        =     -16.46652136 Ry

     convergence has been achieved in   7 iterations

     Writing all to output data dir ./SCRATCH/silicon.save/

     init_run     :      0.95s CPU      1.05s WALL (       1 calls)
     electrons    :     12.12s CPU     12.31s WALL (       1 calls)

     Called by init_run:
     wfcinit      :      0.89s CPU      0.95s WALL (       1 calls)
     potinit      :      0.00s CPU      0.03s WALL (       1 calls)
     hinit0       :      0.02s CPU      0.03s WALL (       1 calls)

     Called by electrons:
     c_bands      :     10.20s CPU     10.38s WALL (       8 calls)
     sum_band     :      1.80s CPU      1.79s WALL (       8 calls)
     v_of_rho     :      0.09s CPU      0.09s WALL (       8 calls)
     mix_rho      :      0.02s CPU      0.05s WALL (       8 calls)

     Called by c_bands:
     init_us_2    :      0.25s CPU      0.25s WALL (     493 calls)
     init_us_2:cp :      0.25s CPU      0.25s WALL (     493 calls)
     cegterg      :     10.05s CPU     10.15s WALL (     232 calls)

     Called by *egterg:
     cdiaghg      :      0.02s CPU      0.02s WALL (     766 calls)
     h_psi        :     10.17s CPU     10.41s WALL (     824 calls)
     g_psi        :      0.00s CPU      0.03s WALL (     563 calls)

     Called by h_psi:
     h_psi:calbec :      0.19s CPU      0.17s WALL (     824 calls)
     vloc_psi     :      9.81s CPU     10.07s WALL (     824 calls)
     add_vuspsi   :      0.12s CPU      0.12s WALL (     824 calls)

     General routines
     calbec       :      0.19s CPU      0.17s WALL (     824 calls)
     fft          :      0.05s CPU      0.06s WALL (      24 calls)
     ffts         :      0.00s CPU      0.02s WALL (       8 calls)
     fftw         :     10.39s CPU     10.63s WALL (    6878 calls)


     PWSCF        :     13.11s CPU     13.40s WALL


   This run was terminated on:  12: 5:39  12May2024            

=------------------------------------------------------------------------------=
   JOB DONE.
=------------------------------------------------------------------------------=
