
     Program PWSCF v.7.2 starts on 12May2024 at 12: 5: 5 

     This program is part of the open-source Quantum ESPRESSO suite
     for quantum simulation of materials; please cite
         "P. Giannozzi et al., J. Phys.:Condens. Matter 21 395502 (2009);
         "P. Giannozzi et al., J. Phys.:Condens. Matter 29 465901 (2017);
         "P. Giannozzi et al., J. Chem. Phys. 152 154105 (2020);
          URL http://www.quantum-espresso.org", 
     in publications or presentations arising from this work. More details at
     http://www.quantum-espresso.org/quote

     Serial version
     8825 MiB available memory on the printing compute node when the environment starts

     Waiting for input...
     Reading input from standard input

     Current dimensions of program PWSCF are:
     Max number of different atomic species (ntypx) = 10
     Max number of k-points (npk) =  40000
     Max angular momentum in pseudopotentials (lmaxx) =  4


     G-vector sticks info
     --------------------
     sticks:   dense  smooth     PW     G-vecs:    dense   smooth      PW
     Sum         595     595    199                 9841     9841    1759

     Using Slab Decomposition



     bravais-lattice index     =            2
     lattice parameter (alat)  =      10.4684  a.u.
     unit-cell volume          =     286.7982 (a.u.)^3
     number of atoms/cell      =            2
     number of atomic types    =            1
     number of electrons       =         8.00
     number of Kohn-Sham states=            4
     kinetic-energy cutoff     =      40.0000  Ry
     charge density cutoff     =     160.0000  Ry
     scf convergence threshold =      1.0E-08
     mixing beta               =       0.7000
     number of iterations used =            8  plain     mixing
     Exchange-correlation=  SLA  PZ   NOGX NOGC
                           (   1   1   0   0   0   0   0)

     celldm(1)=  10.468364  celldm(2)=   0.000000  celldm(3)=   0.000000
     celldm(4)=   0.000000  celldm(5)=   0.000000  celldm(6)=   0.000000

     crystal axes: (cart. coord. in units of alat)
               a(1) = (  -0.500000   0.000000   0.500000 )  
               a(2) = (   0.000000   0.500000   0.500000 )  
               a(3) = (  -0.500000   0.500000   0.000000 )  

     reciprocal axes: (cart. coord. in units 2 pi/alat)
               b(1) = ( -1.000000 -1.000000  1.000000 )  
               b(2) = (  1.000000  1.000000  1.000000 )  
               b(3) = ( -1.000000  1.000000 -1.000000 )  


     PseudoPot. # 1 for Si read from file:
     /home/paolo/project_labqsm/pseudopotentials/Si.pz-vbc.UPF
     MD5 check sum: dc3b11d017da532b29132e08c0a6883c
     Pseudo is Norm-conserving, Zval =  4.0
     Generated by new atomic code, or converted to UPF format
     Using radial grid of  431 points,  2 beta functions with: 
                l(1) =   0
                l(2) =   1

     atomic species   valence    mass     pseudopotential
        Si             4.00    12.01100     Si( 1.00)

     48 Sym. Ops., with inversion, found (24 have fractional translation)



   Cartesian axes

     site n.     atom                  positions (alat units)
         1           Si  tau(   1) = (   0.0000000   0.0000000   0.0000000  )
         2           Si  tau(   2) = (   0.2500000   0.2500000   0.2500000  )

     number of k points=    29
                       cart. coord. in units 2pi/alat
        k(    1) = (   0.0000000   0.0000000   0.0000000), wk =   0.0039062
        k(    2) = (  -0.1250000   0.1250000  -0.1250000), wk =   0.0312500
        k(    3) = (  -0.2500000   0.2500000  -0.2500000), wk =   0.0312500
        k(    4) = (  -0.3750000   0.3750000  -0.3750000), wk =   0.0312500
        k(    5) = (   0.5000000  -0.5000000   0.5000000), wk =   0.0156250
        k(    6) = (   0.0000000   0.2500000   0.0000000), wk =   0.0234375
        k(    7) = (  -0.1250000   0.3750000  -0.1250000), wk =   0.0937500
        k(    8) = (  -0.2500000   0.5000000  -0.2500000), wk =   0.0937500
        k(    9) = (   0.6250000  -0.3750000   0.6250000), wk =   0.0937500
        k(   10) = (   0.5000000  -0.2500000   0.5000000), wk =   0.0937500
        k(   11) = (   0.3750000  -0.1250000   0.3750000), wk =   0.0937500
        k(   12) = (   0.2500000   0.0000000   0.2500000), wk =   0.0468750
        k(   13) = (   0.0000000   0.5000000   0.0000000), wk =   0.0234375
        k(   14) = (  -0.1250000   0.6250000  -0.1250000), wk =   0.0937500
        k(   15) = (   0.7500000  -0.2500000   0.7500000), wk =   0.0937500
        k(   16) = (   0.6250000  -0.1250000   0.6250000), wk =   0.0937500
        k(   17) = (   0.5000000   0.0000000   0.5000000), wk =   0.0468750
        k(   18) = (   0.0000000   0.7500000   0.0000000), wk =   0.0234375
        k(   19) = (   0.8750000  -0.1250000   0.8750000), wk =   0.0937500
        k(   20) = (   0.7500000   0.0000000   0.7500000), wk =   0.0468750
        k(   21) = (   0.0000000  -1.0000000   0.0000000), wk =   0.0117188
        k(   22) = (  -0.2500000   0.5000000   0.0000000), wk =   0.0937500
        k(   23) = (   0.6250000  -0.3750000   0.8750000), wk =   0.1875000
        k(   24) = (   0.5000000  -0.2500000   0.7500000), wk =   0.0937500
        k(   25) = (   0.7500000  -0.2500000   1.0000000), wk =   0.0937500
        k(   26) = (   0.6250000  -0.1250000   0.8750000), wk =   0.1875000
        k(   27) = (   0.5000000   0.0000000   0.7500000), wk =   0.0937500
        k(   28) = (  -0.2500000  -1.0000000   0.0000000), wk =   0.0468750
        k(   29) = (  -0.5000000  -1.0000000   0.0000000), wk =   0.0234375

     Dense  grid:     9841 G-vectors     FFT dimensions: (  32,  32,  32)

     Estimated max dynamical RAM per process >       9.12 MB

     Initial potential from superposition of free atoms

     starting charge       7.9990, renormalised to       8.0000
     Starting wfcs are    8 randomized atomic wfcs

     total cpu time spent up to now is        0.2 secs

     Self-consistent Calculation

     iteration #  1     ecut=    40.00 Ry     beta= 0.70
     Davidson diagonalization with overlap
     ethr =  1.00E-02,  avg # of iterations =  2.0

     Threshold (ethr) on eigenvalues was too large:
     Diagonalizing with lowered threshold

     Davidson diagonalization with overlap
     ethr =  6.04E-04,  avg # of iterations =  1.2

     total cpu time spent up to now is        0.6 secs

     total energy              =     -15.84550139 Ry
     estimated scf accuracy    <       0.05335564 Ry

     iteration #  2     ecut=    40.00 Ry     beta= 0.70
     Davidson diagonalization with overlap
     ethr =  6.67E-04,  avg # of iterations =  1.0

     total cpu time spent up to now is        0.7 secs

     total energy              =     -15.84793226 Ry
     estimated scf accuracy    <       0.00218156 Ry

     iteration #  3     ecut=    40.00 Ry     beta= 0.70
     Davidson diagonalization with overlap
     ethr =  2.73E-05,  avg # of iterations =  2.2

     total cpu time spent up to now is        0.9 secs

     total energy              =     -15.84831389 Ry
     estimated scf accuracy    <       0.00006174 Ry

     iteration #  4     ecut=    40.00 Ry     beta= 0.70
     Davidson diagonalization with overlap
     ethr =  7.72E-07,  avg # of iterations =  3.1

     total cpu time spent up to now is        1.2 secs

     total energy              =     -15.84834508 Ry
     estimated scf accuracy    <       0.00000121 Ry

     iteration #  5     ecut=    40.00 Ry     beta= 0.70
     Davidson diagonalization with overlap
     ethr =  1.51E-08,  avg # of iterations =  4.5

     total cpu time spent up to now is        1.5 secs

     total energy              =     -15.84834634 Ry
     estimated scf accuracy    <       0.00000007 Ry

     iteration #  6     ecut=    40.00 Ry     beta= 0.70
     Davidson diagonalization with overlap
     ethr =  8.86E-10,  avg # of iterations =  3.1

     total cpu time spent up to now is        1.7 secs

     total energy              =     -15.84834637 Ry
     estimated scf accuracy    <       0.00000002 Ry

     iteration #  7     ecut=    40.00 Ry     beta= 0.70
     Davidson diagonalization with overlap
     ethr =  2.43E-10,  avg # of iterations =  2.0

     total cpu time spent up to now is        1.9 secs

     End of self-consistent calculation

          k = 0.0000 0.0000 0.0000 (  1243 PWs)   bands (ev):

    -6.0919   5.4389   5.4389   5.4389

          k =-0.1250 0.1250-0.1250 (  1242 PWs)   bands (ev):

    -5.8979   3.8541   5.1669   5.1669

          k =-0.2500 0.2500-0.2500 (  1227 PWs)   bands (ev):

    -5.3325   1.6185   4.7174   4.7174

          k =-0.3750 0.3750-0.3750 (  1227 PWs)   bands (ev):

    -4.4882  -0.3053   4.4017   4.4017

          k = 0.5000-0.5000 0.5000 (  1224 PWs)   bands (ev):

    -3.8936  -1.2682   4.2931   4.2931

          k = 0.0000 0.2500 0.0000 (  1235 PWs)   bands (ev):

    -5.8324   4.0499   4.6844   4.6844

          k =-0.1250 0.3750-0.1250 (  1233 PWs)   bands (ev):

    -5.3873   2.2640   4.1971   4.2375

          k =-0.2500 0.5000-0.2500 (  1230 PWs)   bands (ev):

    -4.6156   0.3097   3.6655   3.9373

          k = 0.6250-0.3750 0.6250 (  1217 PWs)   bands (ev):

    -3.8085  -1.0701   3.2421   3.9553

          k = 0.5000-0.2500 0.5000 (  1220 PWs)   bands (ev):

    -4.0361  -0.7224   3.0770   4.2333

          k = 0.3750-0.1250 0.3750 (  1232 PWs)   bands (ev):

    -4.9054   0.9343   3.2361   4.6980

          k = 0.2500 0.0000 0.2500 (  1229 PWs)   bands (ev):

    -5.5785   2.7796   3.9066   5.1543

          k = 0.0000 0.5000 0.0000 (  1243 PWs)   bands (ev):

    -5.0637   1.9298   3.6554   3.6554

          k =-0.1250 0.6250-0.1250 (  1236 PWs)   bands (ev):

    -4.3903   0.5839   2.9065   3.3502

          k = 0.7500-0.2500 0.7500 (  1225 PWs)   bands (ev):

    -3.5179  -0.7692   2.0792   3.3503

          k = 0.6250-0.1250 0.6250 (  1217 PWs)   bands (ev):

    -3.3296  -1.0075   1.6470   3.6504

          k = 0.5000 0.0000 0.5000 (  1211 PWs)   bands (ev):

    -4.1545   0.0843   1.8872   4.1774

          k = 0.0000 0.7500 0.0000 (  1230 PWs)   bands (ev):

    -3.8175  -0.1929   2.9704   2.9704

          k = 0.8750-0.1250 0.8750 (  1223 PWs)   bands (ev):

    -2.9684  -1.2237   2.1926   2.8966

          k = 0.7500 0.0000 0.7500 (  1214 PWs)   bands (ev):

    -2.5649  -1.5921   1.3794   3.1407

          k = 0.0000-1.0000 0.0000 (  1234 PWs)   bands (ev):

    -2.1576  -2.1576   2.7351   2.7351

          k =-0.2500 0.5000 0.0000 (  1228 PWs)   bands (ev):

    -4.8296   1.2177   2.8742   4.0811

          k = 0.6250-0.3750 0.8750 (  1228 PWs)   bands (ev):

    -3.9902  -0.2468   2.2764   3.6140

          k = 0.5000-0.2500 0.7500 (  1218 PWs)   bands (ev):

    -3.3813  -1.1290   2.1422   3.4006

          k = 0.7500-0.2500 1.0000 (  1230 PWs)   bands (ev):

    -3.6316  -0.4007   2.2579   2.8359

          k = 0.6250-0.1250 0.8750 (  1217 PWs)   bands (ev):

    -2.8102  -1.3150   1.6006   2.6458

          k = 0.5000 0.0000 0.7500 (  1216 PWs)   bands (ev):

    -3.1418  -0.9680   1.4437   2.9994

          k =-0.2500-1.0000 0.0000 (  1218 PWs)   bands (ev):

    -2.0885  -2.0885   2.2114   2.2114

          k =-0.5000-1.0000 0.0000 (  1216 PWs)   bands (ev):

    -2.0132  -2.0132   1.8062   1.8062

     highest occupied level (ev):     5.4389

!    total energy              =     -15.84834637 Ry
     estimated scf accuracy    <          2.3E-11 Ry

     The total energy is the sum of the following terms:
     one-electron contribution =       4.20740630 Ry
     hartree contribution      =       1.14486111 Ry
     xc contribution           =      -4.73409240 Ry
     ewald contribution        =     -16.46652139 Ry

     convergence has been achieved in   7 iterations

     Writing all to output data dir ./SCRATCH/silicon.save/

     init_run     :      0.16s CPU      0.17s WALL (       1 calls)
     electrons    :      1.62s CPU      1.73s WALL (       1 calls)

     Called by init_run:
     wfcinit      :      0.14s CPU      0.14s WALL (       1 calls)
     potinit      :      0.00s CPU      0.01s WALL (       1 calls)
     hinit0       :      0.02s CPU      0.01s WALL (       1 calls)

     Called by electrons:
     c_bands      :      1.41s CPU      1.46s WALL (       8 calls)
     sum_band     :      0.22s CPU      0.25s WALL (       8 calls)
     v_of_rho     :      0.00s CPU      0.01s WALL (       8 calls)
     mix_rho      :      0.00s CPU      0.01s WALL (       8 calls)

     Called by c_bands:
     init_us_2    :      0.06s CPU      0.05s WALL (     493 calls)
     init_us_2:cp :      0.06s CPU      0.05s WALL (     493 calls)
     cegterg      :      1.38s CPU      1.40s WALL (     232 calls)

     Called by *egterg:
     cdiaghg      :      0.02s CPU      0.01s WALL (     759 calls)
     h_psi        :      1.41s CPU      1.38s WALL (     817 calls)
     g_psi        :      0.00s CPU      0.01s WALL (     556 calls)

     Called by h_psi:
     h_psi:calbec :      0.00s CPU      0.03s WALL (     817 calls)
     vloc_psi     :      1.39s CPU      1.31s WALL (     817 calls)
     add_vuspsi   :      0.02s CPU      0.02s WALL (     817 calls)

     General routines
     calbec       :      0.00s CPU      0.03s WALL (     817 calls)
     fft          :      0.00s CPU      0.01s WALL (      24 calls)
     ffts         :      0.00s CPU      0.00s WALL (       8 calls)
     fftw         :      1.44s CPU      1.35s WALL (    6742 calls)


     PWSCF        :      1.78s CPU      1.93s WALL


   This run was terminated on:  12: 5: 7  12May2024            

=------------------------------------------------------------------------------=
   JOB DONE.
=------------------------------------------------------------------------------=
