
     Program PWSCF v.7.2 starts on  9Jun2024 at 11:33:40 

     This program is part of the open-source Quantum ESPRESSO suite
     for quantum simulation of materials; please cite
         "P. Giannozzi et al., J. Phys.:Condens. Matter 21 395502 (2009);
         "P. Giannozzi et al., J. Phys.:Condens. Matter 29 465901 (2017);
         "P. Giannozzi et al., J. Chem. Phys. 152 154105 (2020);
          URL http://www.quantum-espresso.org", 
     in publications or presentations arising from this work. More details at
     http://www.quantum-espresso.org/quote

     Serial version
     8826 MiB available memory on the printing compute node when the environment starts

     Waiting for input...
     Reading input from standard input

     Current dimensions of program PWSCF are:
     Max number of different atomic species (ntypx) = 10
     Max number of k-points (npk) =  40000
     Max angular momentum in pseudopotentials (lmaxx) =  4


     G-vector sticks info
     --------------------
     sticks:   dense  smooth     PW     G-vecs:    dense   smooth      PW
     Sum         733     733    223                12939    12939    2229

     Using Slab Decomposition



     bravais-lattice index     =            2
     lattice parameter (alat)  =      10.2631  a.u.
     unit-cell volume          =     270.2564 (a.u.)^3
     number of atoms/cell      =            2
     number of atomic types    =            1
     number of electrons       =         8.00
     number of Kohn-Sham states=            4
     kinetic-energy cutoff     =      50.0000  Ry
     charge density cutoff     =     200.0000  Ry
     scf convergence threshold =      1.0E-08
     mixing beta               =       0.7000
     number of iterations used =            8  plain     mixing
     Exchange-correlation= PBE
                           (   1   4   3   4   0   0   0)

     celldm(1)=  10.263102  celldm(2)=   0.000000  celldm(3)=   0.000000
     celldm(4)=   0.000000  celldm(5)=   0.000000  celldm(6)=   0.000000

     crystal axes: (cart. coord. in units of alat)
               a(1) = (  -0.500000   0.000000   0.500000 )  
               a(2) = (   0.000000   0.500000   0.500000 )  
               a(3) = (  -0.500000   0.500000   0.000000 )  

     reciprocal axes: (cart. coord. in units 2 pi/alat)
               b(1) = ( -1.000000 -1.000000  1.000000 )  
               b(2) = (  1.000000  1.000000  1.000000 )  
               b(3) = ( -1.000000  1.000000 -1.000000 )  


     PseudoPot. # 1 for Si read from file:
     /home/paolo/project_labqsm/pseudopotentials/Si_ONCV_PBE-1.2.upf
     MD5 check sum: 7f029a58b69e3aa87b46a36c608bf45e
     Pseudo is Norm-conserving, Zval =  4.0
     Generated using ONCVPSP code by D. R. Hamann
     Using radial grid of  602 points,  4 beta functions with: 
                l(1) =   0
                l(2) =   0
                l(3) =   1
                l(4) =   1

     atomic species   valence    mass     pseudopotential
        Si             4.00    28.08500     Si( 1.00)

     48 Sym. Ops., with inversion, found (24 have fractional translation)



   Cartesian axes

     site n.     atom                  positions (alat units)
         1           Si  tau(   1) = (   0.0000000   0.0000000   0.0000000  )
         2           Si  tau(   2) = (   0.2500000   0.2500000   0.2500000  )

     number of k points=    29
                       cart. coord. in units 2pi/alat
        k(    1) = (   0.0000000   0.0000000   0.0000000), wk =   0.0039062
        k(    2) = (  -0.1250000   0.1250000  -0.1250000), wk =   0.0312500
        k(    3) = (  -0.2500000   0.2500000  -0.2500000), wk =   0.0312500
        k(    4) = (  -0.3750000   0.3750000  -0.3750000), wk =   0.0312500
        k(    5) = (   0.5000000  -0.5000000   0.5000000), wk =   0.0156250
        k(    6) = (   0.0000000   0.2500000   0.0000000), wk =   0.0234375
        k(    7) = (  -0.1250000   0.3750000  -0.1250000), wk =   0.0937500
        k(    8) = (  -0.2500000   0.5000000  -0.2500000), wk =   0.0937500
        k(    9) = (   0.6250000  -0.3750000   0.6250000), wk =   0.0937500
        k(   10) = (   0.5000000  -0.2500000   0.5000000), wk =   0.0937500
        k(   11) = (   0.3750000  -0.1250000   0.3750000), wk =   0.0937500
        k(   12) = (   0.2500000   0.0000000   0.2500000), wk =   0.0468750
        k(   13) = (   0.0000000   0.5000000   0.0000000), wk =   0.0234375
        k(   14) = (  -0.1250000   0.6250000  -0.1250000), wk =   0.0937500
        k(   15) = (   0.7500000  -0.2500000   0.7500000), wk =   0.0937500
        k(   16) = (   0.6250000  -0.1250000   0.6250000), wk =   0.0937500
        k(   17) = (   0.5000000   0.0000000   0.5000000), wk =   0.0468750
        k(   18) = (   0.0000000   0.7500000   0.0000000), wk =   0.0234375
        k(   19) = (   0.8750000  -0.1250000   0.8750000), wk =   0.0937500
        k(   20) = (   0.7500000   0.0000000   0.7500000), wk =   0.0468750
        k(   21) = (   0.0000000  -1.0000000   0.0000000), wk =   0.0117188
        k(   22) = (  -0.2500000   0.5000000   0.0000000), wk =   0.0937500
        k(   23) = (   0.6250000  -0.3750000   0.8750000), wk =   0.1875000
        k(   24) = (   0.5000000  -0.2500000   0.7500000), wk =   0.0937500
        k(   25) = (   0.7500000  -0.2500000   1.0000000), wk =   0.0937500
        k(   26) = (   0.6250000  -0.1250000   0.8750000), wk =   0.1875000
        k(   27) = (   0.5000000   0.0000000   0.7500000), wk =   0.0937500
        k(   28) = (  -0.2500000  -1.0000000   0.0000000), wk =   0.0468750
        k(   29) = (  -0.5000000  -1.0000000   0.0000000), wk =   0.0234375

     Dense  grid:    12939 G-vectors     FFT dimensions: (  36,  36,  36)

     Estimated max dynamical RAM per process >      12.66 MB

     Initial potential from superposition of free atoms

     starting charge       7.9075, renormalised to       8.0000
     Starting wfcs are random

     total cpu time spent up to now is        0.2 secs

     Self-consistent Calculation

     iteration #  1     ecut=    50.00 Ry     beta= 0.70
     Davidson diagonalization with overlap
     ethr =  1.00E-02,  avg # of iterations =  8.3

     Threshold (ethr) on eigenvalues was too large:
     Diagonalizing with lowered threshold

     Davidson diagonalization with overlap
     ethr =  5.92E-04,  avg # of iterations =  3.2

     total cpu time spent up to now is        1.2 secs

     total energy              =     -15.76258225 Ry
     estimated scf accuracy    <       0.05226695 Ry

     iteration #  2     ecut=    50.00 Ry     beta= 0.70
     Davidson diagonalization with overlap
     ethr =  6.53E-04,  avg # of iterations =  1.0

     total cpu time spent up to now is        1.4 secs

     total energy              =     -15.76500733 Ry
     estimated scf accuracy    <       0.00240176 Ry

     iteration #  3     ecut=    50.00 Ry     beta= 0.70
     Davidson diagonalization with overlap
     ethr =  3.00E-05,  avg # of iterations =  3.1

     total cpu time spent up to now is        1.8 secs

     total energy              =     -15.76569294 Ry
     estimated scf accuracy    <       0.00004362 Ry

     iteration #  4     ecut=    50.00 Ry     beta= 0.70
     Davidson diagonalization with overlap
     ethr =  5.45E-07,  avg # of iterations =  5.1

     total cpu time spent up to now is        2.2 secs

     total energy              =     -15.76574008 Ry
     estimated scf accuracy    <       0.00000024 Ry

     iteration #  5     ecut=    50.00 Ry     beta= 0.70
     Davidson diagonalization with overlap
     ethr =  2.94E-09,  avg # of iterations =  5.4

     total cpu time spent up to now is        2.7 secs

     total energy              =     -15.76574073 Ry
     estimated scf accuracy    <       0.00000001 Ry

     iteration #  6     ecut=    50.00 Ry     beta= 0.70
     Davidson diagonalization with overlap
     ethr =  1.33E-10,  avg # of iterations =  3.8

     total cpu time spent up to now is        3.1 secs

     End of self-consistent calculation

          k = 0.0000 0.0000 0.0000 (  1639 PWs)   bands (ev):

    -5.7353   6.2218   6.2218   6.2218

          k =-0.1250 0.1250-0.1250 (  1606 PWs)   bands (ev):

    -5.5314   4.6234   5.9349   5.9349

          k =-0.2500 0.2500-0.2500 (  1618 PWs)   bands (ev):

    -4.9363   2.2970   5.4671   5.4671

          k =-0.3750 0.3750-0.3750 (  1610 PWs)   bands (ev):

    -4.0433   0.2785   5.1422   5.1422

          k = 0.5000-0.5000 0.5000 (  1622 PWs)   bands (ev):

    -3.4063  -0.7429   5.0311   5.0311

          k = 0.0000 0.2500 0.0000 (  1603 PWs)   bands (ev):

    -5.4626   4.8849   5.4191   5.4191

          k =-0.1250 0.3750-0.1250 (  1605 PWs)   bands (ev):

    -4.9943   2.9983   4.9096   4.9826

          k =-0.2500 0.5000-0.2500 (  1614 PWs)   bands (ev):

    -4.1800   0.9398   4.3918   4.6432

          k = 0.6250-0.3750 0.6250 (  1609 PWs)   bands (ev):

    -3.3196  -0.5222   3.9471   4.6682

          k = 0.5000-0.2500 0.5000 (  1614 PWs)   bands (ev):

    -3.5638  -0.1519   3.7658   4.9641

          k = 0.3750-0.1250 0.3750 (  1614 PWs)   bands (ev):

    -4.4861   1.5985   3.9167   5.4537

          k = 0.2500 0.0000 0.2500 (  1608 PWs)   bands (ev):

    -5.1954   3.5379   4.5985   5.9320

          k = 0.0000 0.5000 0.0000 (  1612 PWs)   bands (ev):

    -4.6541   2.7028   4.3402   4.3402

          k =-0.1250 0.6250-0.1250 (  1616 PWs)   bands (ev):

    -3.9446   1.2812   3.5587   4.0233

          k = 0.7500-0.2500 0.7500 (  1617 PWs)   bands (ev):

    -3.0194  -0.1589   2.6946   4.0269

          k = 0.6250-0.1250 0.6250 (  1611 PWs)   bands (ev):

    -2.8155  -0.4168   2.2364   4.3448

          k = 0.5000 0.0000 0.5000 (  1604 PWs)   bands (ev):

    -3.6931   0.7427   2.4769   4.9019

          k = 0.0000 0.7500 0.0000 (  1624 PWs)   bands (ev):

    -3.3424   0.4766   3.6261   3.6261

          k = 0.8750-0.1250 0.8750 (  1625 PWs)   bands (ev):

    -2.4457  -0.6076   2.7956   3.5503

          k = 0.7500 0.0000 0.7500 (  1624 PWs)   bands (ev):

    -2.0077  -1.0036   1.9291   3.8074

          k = 0.0000-1.0000 0.0000 (  1604 PWs)   bands (ev):

    -1.5935  -1.5935   3.3813   3.3813

          k =-0.2500 0.5000 0.0000 (  1610 PWs)   bands (ev):

    -4.4069   1.9326   3.5160   4.8006

          k = 0.6250-0.3750 0.8750 (  1618 PWs)   bands (ev):

    -3.5193   0.3824   2.9075   4.3005

          k = 0.5000-0.2500 0.7500 (  1614 PWs)   bands (ev):

    -2.8678  -0.5614   2.7781   4.0715

          k = 0.7500-0.2500 1.0000 (  1613 PWs)   bands (ev):

    -3.1440   0.2580   2.8684   3.4718

          k = 0.6250-0.1250 0.8750 (  1613 PWs)   bands (ev):

    -2.2701  -0.7091   2.1700   3.2710

          k = 0.5000 0.0000 0.7500 (  1616 PWs)   bands (ev):

    -2.6205  -0.3460   2.0031   3.6464

          k =-0.2500-1.0000 0.0000 (  1626 PWs)   bands (ev):

    -1.5158  -1.5158   2.8147   2.8147

          k =-0.5000-1.0000 0.0000 (  1628 PWs)   bands (ev):

    -1.4302  -1.4302   2.3781   2.3781

     highest occupied level (ev):     6.2218

!    total energy              =     -15.76574074 Ry
     estimated scf accuracy    <          1.7E-09 Ry

     The total energy is the sum of the following terms:
     one-electron contribution =       4.74342452 Ry
     hartree contribution      =       1.10229921 Ry
     xc contribution           =      -4.81561264 Ry
     ewald contribution        =     -16.79585182 Ry

     convergence has been achieved in   6 iterations

     Writing all to output data dir ./SCRATCH/silicon.save/

     init_run     :      0.12s CPU      0.15s WALL (       1 calls)
     electrons    :      2.78s CPU      2.94s WALL (       1 calls)

     Called by init_run:
     wfcinit      :      0.08s CPU      0.10s WALL (       1 calls)
     potinit      :      0.03s CPU      0.03s WALL (       1 calls)
     hinit0       :      0.02s CPU      0.02s WALL (       1 calls)

     Called by electrons:
     c_bands      :      2.42s CPU      2.53s WALL (       7 calls)
     sum_band     :      0.28s CPU      0.30s WALL (       7 calls)
     v_of_rho     :      0.08s CPU      0.12s WALL (       7 calls)
     mix_rho      :      0.02s CPU      0.01s WALL (       7 calls)

     Called by c_bands:
     init_us_2    :      0.05s CPU      0.08s WALL (     435 calls)
     init_us_2:cp :      0.05s CPU      0.07s WALL (     435 calls)
     cegterg      :      2.38s CPU      2.41s WALL (     203 calls)

     Called by *egterg:
     cdiaghg      :      0.05s CPU      0.02s WALL (    1043 calls)
     h_psi        :      2.23s CPU      2.26s WALL (    1101 calls)
     g_psi        :      0.00s CPU      0.01s WALL (     869 calls)

     Called by h_psi:
     h_psi:calbec :      0.05s CPU      0.10s WALL (    1101 calls)
     vloc_psi     :      2.08s CPU      2.08s WALL (    1101 calls)
     add_vuspsi   :      0.11s CPU      0.07s WALL (    1101 calls)

     General routines
     calbec       :      0.05s CPU      0.10s WALL (    1101 calls)
     fft          :      0.03s CPU      0.03s WALL (      70 calls)
     ffts         :      0.00s CPU      0.00s WALL (       7 calls)
     fftw         :      2.05s CPU      2.08s WALL (    7532 calls)


     PWSCF        :      2.92s CPU      3.11s WALL


   This run was terminated on:  11:33:43   9Jun2024            

=------------------------------------------------------------------------------=
   JOB DONE.
=------------------------------------------------------------------------------=
