
     Program PWSCF v.7.2 starts on  9Jun2024 at 11:34:31 

     This program is part of the open-source Quantum ESPRESSO suite
     for quantum simulation of materials; please cite
         "P. Giannozzi et al., J. Phys.:Condens. Matter 21 395502 (2009);
         "P. Giannozzi et al., J. Phys.:Condens. Matter 29 465901 (2017);
         "P. Giannozzi et al., J. Chem. Phys. 152 154105 (2020);
          URL http://www.quantum-espresso.org", 
     in publications or presentations arising from this work. More details at
     http://www.quantum-espresso.org/quote

     Serial version
     8859 MiB available memory on the printing compute node when the environment starts

     Waiting for input...
     Reading input from standard input

     Current dimensions of program PWSCF are:
     Max number of different atomic species (ntypx) = 10
     Max number of k-points (npk) =  40000
     Max angular momentum in pseudopotentials (lmaxx) =  4


     G-vector sticks info
     --------------------
     sticks:   dense  smooth     PW     G-vecs:    dense   smooth      PW
     Sum         913     913    271                18053    18053    2975

     Using Slab Decomposition



     bravais-lattice index     =            2
     lattice parameter (alat)  =      10.4684  a.u.
     unit-cell volume          =     286.7982 (a.u.)^3
     number of atoms/cell      =            2
     number of atomic types    =            1
     number of electrons       =         8.00
     number of Kohn-Sham states=            4
     kinetic-energy cutoff     =      60.0000  Ry
     charge density cutoff     =     240.0000  Ry
     scf convergence threshold =      1.0E-08
     mixing beta               =       0.7000
     number of iterations used =            8  plain     mixing
     Exchange-correlation= PBE
                           (   1   4   3   4   0   0   0)

     celldm(1)=  10.468364  celldm(2)=   0.000000  celldm(3)=   0.000000
     celldm(4)=   0.000000  celldm(5)=   0.000000  celldm(6)=   0.000000

     crystal axes: (cart. coord. in units of alat)
               a(1) = (  -0.500000   0.000000   0.500000 )  
               a(2) = (   0.000000   0.500000   0.500000 )  
               a(3) = (  -0.500000   0.500000   0.000000 )  

     reciprocal axes: (cart. coord. in units 2 pi/alat)
               b(1) = ( -1.000000 -1.000000  1.000000 )  
               b(2) = (  1.000000  1.000000  1.000000 )  
               b(3) = ( -1.000000  1.000000 -1.000000 )  


     PseudoPot. # 1 for Si read from file:
     /home/paolo/project_labqsm/pseudopotentials/Si_ONCV_PBE-1.2.upf
     MD5 check sum: 7f029a58b69e3aa87b46a36c608bf45e
     Pseudo is Norm-conserving, Zval =  4.0
     Generated using ONCVPSP code by D. R. Hamann
     Using radial grid of  602 points,  4 beta functions with: 
                l(1) =   0
                l(2) =   0
                l(3) =   1
                l(4) =   1

     atomic species   valence    mass     pseudopotential
        Si             4.00    28.08500     Si( 1.00)

     48 Sym. Ops., with inversion, found (24 have fractional translation)



   Cartesian axes

     site n.     atom                  positions (alat units)
         1           Si  tau(   1) = (   0.0000000   0.0000000   0.0000000  )
         2           Si  tau(   2) = (   0.2500000   0.2500000   0.2500000  )

     number of k points=    29
                       cart. coord. in units 2pi/alat
        k(    1) = (   0.0000000   0.0000000   0.0000000), wk =   0.0039062
        k(    2) = (  -0.1250000   0.1250000  -0.1250000), wk =   0.0312500
        k(    3) = (  -0.2500000   0.2500000  -0.2500000), wk =   0.0312500
        k(    4) = (  -0.3750000   0.3750000  -0.3750000), wk =   0.0312500
        k(    5) = (   0.5000000  -0.5000000   0.5000000), wk =   0.0156250
        k(    6) = (   0.0000000   0.2500000   0.0000000), wk =   0.0234375
        k(    7) = (  -0.1250000   0.3750000  -0.1250000), wk =   0.0937500
        k(    8) = (  -0.2500000   0.5000000  -0.2500000), wk =   0.0937500
        k(    9) = (   0.6250000  -0.3750000   0.6250000), wk =   0.0937500
        k(   10) = (   0.5000000  -0.2500000   0.5000000), wk =   0.0937500
        k(   11) = (   0.3750000  -0.1250000   0.3750000), wk =   0.0937500
        k(   12) = (   0.2500000   0.0000000   0.2500000), wk =   0.0468750
        k(   13) = (   0.0000000   0.5000000   0.0000000), wk =   0.0234375
        k(   14) = (  -0.1250000   0.6250000  -0.1250000), wk =   0.0937500
        k(   15) = (   0.7500000  -0.2500000   0.7500000), wk =   0.0937500
        k(   16) = (   0.6250000  -0.1250000   0.6250000), wk =   0.0937500
        k(   17) = (   0.5000000   0.0000000   0.5000000), wk =   0.0468750
        k(   18) = (   0.0000000   0.7500000   0.0000000), wk =   0.0234375
        k(   19) = (   0.8750000  -0.1250000   0.8750000), wk =   0.0937500
        k(   20) = (   0.7500000   0.0000000   0.7500000), wk =   0.0468750
        k(   21) = (   0.0000000  -1.0000000   0.0000000), wk =   0.0117188
        k(   22) = (  -0.2500000   0.5000000   0.0000000), wk =   0.0937500
        k(   23) = (   0.6250000  -0.3750000   0.8750000), wk =   0.1875000
        k(   24) = (   0.5000000  -0.2500000   0.7500000), wk =   0.0937500
        k(   25) = (   0.7500000  -0.2500000   1.0000000), wk =   0.0937500
        k(   26) = (   0.6250000  -0.1250000   0.8750000), wk =   0.1875000
        k(   27) = (   0.5000000   0.0000000   0.7500000), wk =   0.0937500
        k(   28) = (  -0.2500000  -1.0000000   0.0000000), wk =   0.0468750
        k(   29) = (  -0.5000000  -1.0000000   0.0000000), wk =   0.0234375

     Dense  grid:    18053 G-vectors     FFT dimensions: (  40,  40,  40)

     Estimated max dynamical RAM per process >      17.48 MB

     Initial potential from superposition of free atoms

     starting charge       7.9075, renormalised to       8.0000
     Starting wfcs are random

     total cpu time spent up to now is        0.2 secs

     Self-consistent Calculation

     iteration #  1     ecut=    60.00 Ry     beta= 0.70
     Davidson diagonalization with overlap
     ethr =  1.00E-02,  avg # of iterations =  8.2

     Threshold (ethr) on eigenvalues was too large:
     Diagonalizing with lowered threshold

     Davidson diagonalization with overlap
     ethr =  5.42E-04,  avg # of iterations =  3.9

     total cpu time spent up to now is        1.9 secs

     total energy              =     -15.76299777 Ry
     estimated scf accuracy    <       0.04782883 Ry

     iteration #  2     ecut=    60.00 Ry     beta= 0.70
     Davidson diagonalization with overlap
     ethr =  5.98E-04,  avg # of iterations =  1.0

     total cpu time spent up to now is        2.3 secs

     total energy              =     -15.76495059 Ry
     estimated scf accuracy    <       0.00234874 Ry

     iteration #  3     ecut=    60.00 Ry     beta= 0.70
     Davidson diagonalization with overlap
     ethr =  2.94E-05,  avg # of iterations =  2.9

     total cpu time spent up to now is        2.8 secs

     total energy              =     -15.76541625 Ry
     estimated scf accuracy    <       0.00003330 Ry

     iteration #  4     ecut=    60.00 Ry     beta= 0.70
     Davidson diagonalization with overlap
     ethr =  4.16E-07,  avg # of iterations =  5.0

     total cpu time spent up to now is        3.5 secs

     total energy              =     -15.76545919 Ry
     estimated scf accuracy    <       0.00000052 Ry

     iteration #  5     ecut=    60.00 Ry     beta= 0.70
     Davidson diagonalization with overlap
     ethr =  6.45E-09,  avg # of iterations =  5.1

     total cpu time spent up to now is        4.2 secs

     total energy              =     -15.76545999 Ry
     estimated scf accuracy    <       0.00000007 Ry

     iteration #  6     ecut=    60.00 Ry     beta= 0.70
     Davidson diagonalization with overlap
     ethr =  9.30E-10,  avg # of iterations =  2.5

     total cpu time spent up to now is        4.7 secs

     End of self-consistent calculation

          k = 0.0000 0.0000 0.0000 (  2229 PWs)   bands (ev):

    -5.9412   5.6175   5.6175   5.6175

          k =-0.1250 0.1250-0.1250 (  2229 PWs)   bands (ev):

    -5.7476   4.0309   5.3471   5.3471

          k =-0.2500 0.2500-0.2500 (  2238 PWs)   bands (ev):

    -5.1837   1.7941   4.9001   4.9001

          k =-0.3750 0.3750-0.3750 (  2241 PWs)   bands (ev):

    -4.3443  -0.1255   4.5862   4.5862

          k = 0.5000-0.5000 0.5000 (  2252 PWs)   bands (ev):

    -3.7581  -1.0799   4.4782   4.4782

          k = 0.0000 0.2500 0.0000 (  2225 PWs)   bands (ev):

    -5.6822   4.2195   4.8672   4.8672

          k =-0.1250 0.3750-0.1250 (  2237 PWs)   bands (ev):

    -5.2380   2.4325   4.3825   4.4225

          k =-0.2500 0.5000-0.2500 (  2255 PWs)   bands (ev):

    -4.4694   0.4816   3.8532   4.1242

          k = 0.6250-0.3750 0.6250 (  2254 PWs)   bands (ev):

    -3.6708  -0.8892   3.4316   4.1423

          k = 0.5000-0.2500 0.5000 (  2245 PWs)   bands (ev):

    -3.8952  -0.5449   3.2683   4.4187

          k = 0.3750-0.1250 0.3750 (  2249 PWs)   bands (ev):

    -4.7579   1.1043   3.4290   4.8808

          k = 0.2500 0.0000 0.2500 (  2239 PWs)   bands (ev):

    -5.4288   2.9484   4.0979   5.3346

          k = 0.0000 0.5000 0.0000 (  2269 PWs)   bands (ev):

    -4.9146   2.0845   3.8439   3.8439

          k =-0.1250 0.6250-0.1250 (  2248 PWs)   bands (ev):

    -4.2428   0.7367   3.1028   3.5406

          k = 0.7500-0.2500 0.7500 (  2257 PWs)   bands (ev):

    -3.3761  -0.6109   2.2818   3.5407

          k = 0.6250-0.1250 0.6250 (  2260 PWs)   bands (ev):

    -3.1914  -0.8459   1.8542   3.8390

          k = 0.5000 0.0000 0.5000 (  2269 PWs)   bands (ev):

    -4.0100   0.2408   2.0956   4.3630

          k = 0.0000 0.7500 0.0000 (  2249 PWs)   bands (ev):

    -3.6701  -0.0459   3.1631   3.1631

          k = 0.8750-0.1250 0.8750 (  2262 PWs)   bands (ev):

    -2.8234  -1.0786   2.3970   3.0898

          k = 0.7500 0.0000 0.7500 (  2257 PWs)   bands (ev):

    -2.4276  -1.4435   1.5956   3.3324

          k = 0.0000-1.0000 0.0000 (  2272 PWs)   bands (ev):

    -2.0118  -2.0118   2.9293   2.9293

          k =-0.2500 0.5000 0.0000 (  2247 PWs)   bands (ev):

    -4.6816   1.3760   3.0731   4.2673

          k = 0.6250-0.3750 0.8750 (  2261 PWs)   bands (ev):

    -3.8464  -0.0853   2.4763   3.8050

          k = 0.5000-0.2500 0.7500 (  2250 PWs)   bands (ev):

    -3.2446  -0.9592   2.3403   3.5939

          k = 0.7500-0.2500 1.0000 (  2236 PWs)   bands (ev):

    -3.4863  -0.2542   2.4615   3.0343

          k = 0.6250-0.1250 0.8750 (  2246 PWs)   bands (ev):

    -2.6707  -1.1676   1.8125   2.8466

          k = 0.5000 0.0000 0.7500 (  2256 PWs)   bands (ev):

    -3.0018  -0.8195   1.6578   3.1967

          k =-0.2500-1.0000 0.0000 (  2240 PWs)   bands (ev):

    -1.9454  -1.9454   2.4159   2.4159

          k =-0.5000-1.0000 0.0000 (  2244 PWs)   bands (ev):

    -1.8733  -1.8733   2.0179   2.0179

     highest occupied level (ev):     5.6175

!    total energy              =     -15.76546001 Ry
     estimated scf accuracy    <          3.2E-09 Ry

     The total energy is the sum of the following terms:
     one-electron contribution =       4.30094673 Ry
     hartree contribution      =       1.15453724 Ry
     xc contribution           =      -4.75442262 Ry
     ewald contribution        =     -16.46652136 Ry

     convergence has been achieved in   6 iterations

     Writing all to output data dir ./SCRATCH/silicon.save/

     init_run     :      0.19s CPU      0.22s WALL (       1 calls)
     electrons    :      4.34s CPU      4.51s WALL (       1 calls)

     Called by init_run:
     wfcinit      :      0.16s CPU      0.15s WALL (       1 calls)
     potinit      :      0.00s CPU      0.04s WALL (       1 calls)
     hinit0       :      0.02s CPU      0.02s WALL (       1 calls)

     Called by electrons:
     c_bands      :      3.75s CPU      3.87s WALL (       7 calls)
     sum_band     :      0.47s CPU      0.48s WALL (       7 calls)
     v_of_rho     :      0.12s CPU      0.17s WALL (       7 calls)
     mix_rho      :      0.00s CPU      0.01s WALL (       7 calls)

     Called by c_bands:
     init_us_2    :      0.06s CPU      0.10s WALL (     435 calls)
     init_us_2:cp :      0.06s CPU      0.10s WALL (     435 calls)
     cegterg      :      3.67s CPU      3.73s WALL (     203 calls)

     Called by *egterg:
     cdiaghg      :      0.00s CPU      0.02s WALL (    1004 calls)
     h_psi        :      3.53s CPU      3.58s WALL (    1062 calls)
     g_psi        :      0.00s CPU      0.02s WALL (     830 calls)

     Called by h_psi:
     h_psi:calbec :      0.12s CPU      0.13s WALL (    1062 calls)
     vloc_psi     :      3.25s CPU      3.34s WALL (    1062 calls)
     add_vuspsi   :      0.16s CPU      0.09s WALL (    1062 calls)

     General routines
     calbec       :      0.12s CPU      0.12s WALL (    1062 calls)
     fft          :      0.05s CPU      0.06s WALL (      70 calls)
     ffts         :      0.00s CPU      0.01s WALL (       7 calls)
     fftw         :      3.30s CPU      3.42s WALL (    7446 calls)


     PWSCF        :      4.53s CPU      4.76s WALL


   This run was terminated on:  11:34:36   9Jun2024            

=------------------------------------------------------------------------------=
   JOB DONE.
=------------------------------------------------------------------------------=
