
     Program PWSCF v.7.2 starts on 10Jun2024 at 10:37:17 

     This program is part of the open-source Quantum ESPRESSO suite
     for quantum simulation of materials; please cite
         "P. Giannozzi et al., J. Phys.:Condens. Matter 21 395502 (2009);
         "P. Giannozzi et al., J. Phys.:Condens. Matter 29 465901 (2017);
         "P. Giannozzi et al., J. Chem. Phys. 152 154105 (2020);
          URL http://www.quantum-espresso.org", 
     in publications or presentations arising from this work. More details at
     http://www.quantum-espresso.org/quote

     Serial version
     9273 MiB available memory on the printing compute node when the environment starts

     Waiting for input...
     Reading input from standard input

     Current dimensions of program PWSCF are:
     Max number of different atomic species (ntypx) = 10
     Max number of k-points (npk) =  40000
     Max angular momentum in pseudopotentials (lmaxx) =  4


     G-vector sticks info
     --------------------
     sticks:   dense  smooth     PW     G-vecs:    dense   smooth      PW
     Sum         955     955    283                38839    38839    6075

     Using Slab Decomposition



     bravais-lattice index     =            4
     lattice parameter (alat)  =       7.5797  a.u.
     unit-cell volume          =     618.0108 (a.u.)^3
     number of atoms/cell      =            4
     number of atomic types    =            2
     number of electrons       =        52.00
     number of Kohn-Sham states=           26
     kinetic-energy cutoff     =      60.0000  Ry
     charge density cutoff     =     240.0000  Ry
     scf convergence threshold =      1.0E-07
     mixing beta               =       0.7000
     number of iterations used =            8  plain     mixing
     energy convergence thresh.=      1.0E-05
     force convergence thresh. =      1.0E-04
     press convergence thresh. =      5.0E-01
     Exchange-correlation= PBE
                           (   1   4   3   4   0   0   0)
     nstep                     =           50


     celldm(1)=   7.579691  celldm(2)=   0.000000  celldm(3)=   1.638743
     celldm(4)=   0.000000  celldm(5)=   0.000000  celldm(6)=   0.000000

     crystal axes: (cart. coord. in units of alat)
               a(1) = (   1.000000   0.000000   0.000000 )  
               a(2) = (  -0.500000   0.866025   0.000000 )  
               a(3) = (   0.000000   0.000000   1.638743 )  

     reciprocal axes: (cart. coord. in units 2 pi/alat)
               b(1) = (  1.000000  0.577350 -0.000000 )  
               b(2) = (  0.000000  1.154701  0.000000 )  
               b(3) = (  0.000000 -0.000000  0.610224 )  


     PseudoPot. # 1 for Zn read from file:
     /home/paolo/project_labqsm/pseudopotentials/Zn_ONCV_PBE-1.2.upf
     MD5 check sum: 732f41c0cd6489a4b50a33b4ec99a2d3
     Pseudo is Norm-conserving, Zval = 20.0
     Generated using ONCVPSP code by D. R. Hamann
     Using radial grid of  602 points,  6 beta functions with: 
                l(1) =   0
                l(2) =   0
                l(3) =   1
                l(4) =   1
                l(5) =   2
                l(6) =   2

     PseudoPot. # 2 for S  read from file:
     /home/paolo/project_labqsm/pseudopotentials/S_ONCV_PBE-1.2.upf
     MD5 check sum: f9d020296ee6110346977bfd66d424f6
     Pseudo is Norm-conserving, Zval =  6.0
     Generated using ONCVPSP code by D. R. Hamann
     Using radial grid of  602 points,  4 beta functions with: 
                l(1) =   0
                l(2) =   0
                l(3) =   1
                l(4) =   1

     atomic species   valence    mass     pseudopotential
        Zn            20.00    65.38000     Zn( 1.00)
        S              6.00    32.06000     S ( 1.00)

      6 Sym. Ops. (no inversion) found



   Cartesian axes

     site n.     atom                  positions (alat units)
         1           Zn  tau(   1) = (   0.0000000   0.0000000   0.0000000  )
         2           S   tau(   2) = (   0.0000000   0.0000000   0.3723729  )
         3           Zn  tau(   3) = (   0.0000000   0.5773503   0.5000000  )
         4           S   tau(   4) = (   0.0000000   0.5773503   0.8723729  )

     number of k points=    34
                       cart. coord. in units 2pi/alat
        k(    1) = (   0.0000000   0.0000000   0.0000000), wk =   0.0092593
        k(    2) = (   0.0000000   0.0000000   0.1017039), wk =   0.0185185
        k(    3) = (   0.0000000   0.0000000   0.2034079), wk =   0.0185185
        k(    4) = (   0.0000000   0.0000000  -0.3051118), wk =   0.0092593
        k(    5) = (   0.0000000   0.1924501   0.0000000), wk =   0.0555556
        k(    6) = (   0.0000000   0.1924501   0.1017039), wk =   0.0555556
        k(    7) = (   0.0000000   0.1924501   0.2034079), wk =   0.0555556
        k(    8) = (   0.0000000   0.1924501  -0.3051118), wk =   0.0555556
        k(    9) = (   0.0000000   0.3849002   0.0000000), wk =   0.0555556
        k(   10) = (   0.0000000   0.3849002   0.1017039), wk =   0.0555556
        k(   11) = (   0.0000000   0.3849002   0.2034079), wk =   0.0555556
        k(   12) = (   0.0000000   0.3849002  -0.3051118), wk =   0.0555556
        k(   13) = (   0.0000000  -0.5773503   0.0000000), wk =   0.0277778
        k(   14) = (   0.0000000  -0.5773503   0.1017039), wk =   0.0555556
        k(   15) = (   0.0000000  -0.5773503   0.2034079), wk =   0.0555556
        k(   16) = (   0.0000000  -0.5773503  -0.3051118), wk =   0.0277778
        k(   17) = (   0.1666667   0.2886751   0.0000000), wk =   0.0555556
        k(   18) = (   0.1666667   0.2886751   0.1017039), wk =   0.1111111
        k(   19) = (   0.1666667   0.2886751   0.2034079), wk =   0.1111111
        k(   20) = (   0.1666667   0.2886751  -0.3051118), wk =   0.0555556
        k(   21) = (   0.1666667   0.4811252   0.0000000), wk =   0.1111111
        k(   22) = (   0.1666667   0.4811252   0.1017039), wk =   0.1111111
        k(   23) = (   0.1666667   0.4811252   0.2034079), wk =   0.1111111
        k(   24) = (   0.1666667   0.4811252  -0.3051118), wk =   0.1111111
        k(   25) = (   0.3333333   0.5773503   0.0000000), wk =   0.0185185
        k(   26) = (   0.3333333   0.5773503   0.1017039), wk =   0.0370370
        k(   27) = (   0.3333333   0.5773503   0.2034079), wk =   0.0370370
        k(   28) = (   0.3333333   0.5773503  -0.3051118), wk =   0.0185185
        k(   29) = (   0.0000000  -0.1924501   0.1017039), wk =   0.0555556
        k(   30) = (   0.0000000  -0.1924501   0.2034079), wk =   0.0555556
        k(   31) = (   0.0000000  -0.3849002   0.1017039), wk =   0.0555556
        k(   32) = (   0.0000000  -0.3849002   0.2034079), wk =   0.0555556
        k(   33) = (  -0.1666667  -0.4811252   0.1017039), wk =   0.1111111
        k(   34) = (  -0.1666667  -0.4811252   0.2034079), wk =   0.1111111

     Dense  grid:    38839 G-vectors     FFT dimensions: (  40,  40,  64)

     Estimated max dynamical RAM per process >     108.38 MB

     Initial potential from superposition of free atoms

     starting charge      51.9339, renormalised to      52.0000
     Starting wfcs are random

     total cpu time spent up to now is        3.4 secs

     Self-consistent Calculation

     iteration #  1     ecut=    60.00 Ry     beta= 0.70
     Davidson diagonalization with overlap
     ethr =  1.00E-02,  avg # of iterations = 15.2

     total cpu time spent up to now is       38.2 secs

     total energy              =    -839.52453301 Ry
     estimated scf accuracy    <       1.22102702 Ry

     iteration #  2     ecut=    60.00 Ry     beta= 0.70
     Davidson diagonalization with overlap
     ethr =  2.35E-03,  avg # of iterations =  8.1

     total cpu time spent up to now is       48.4 secs

     total energy              =    -838.83392905 Ry
     estimated scf accuracy    <       7.98772630 Ry

     iteration #  3     ecut=    60.00 Ry     beta= 0.70
     Davidson diagonalization with overlap
     ethr =  2.35E-03,  avg # of iterations =  6.5

     total cpu time spent up to now is       57.5 secs

     total energy              =    -840.17196191 Ry
     estimated scf accuracy    <       0.37895157 Ry

     iteration #  4     ecut=    60.00 Ry     beta= 0.70
     Davidson diagonalization with overlap
     ethr =  7.29E-04,  avg # of iterations =  2.0

     total cpu time spent up to now is       64.3 secs

     total energy              =    -840.18454030 Ry
     estimated scf accuracy    <       0.10455586 Ry

     iteration #  5     ecut=    60.00 Ry     beta= 0.70
     Davidson diagonalization with overlap
     ethr =  2.01E-04,  avg # of iterations =  3.3

     total cpu time spent up to now is       71.1 secs

     total energy              =    -840.18746213 Ry
     estimated scf accuracy    <       0.02429693 Ry

     iteration #  6     ecut=    60.00 Ry     beta= 0.70
     Davidson diagonalization with overlap
     ethr =  4.67E-05,  avg # of iterations =  4.4

     total cpu time spent up to now is       78.4 secs

     total energy              =    -840.19018744 Ry
     estimated scf accuracy    <       0.00194726 Ry

     iteration #  7     ecut=    60.00 Ry     beta= 0.70
     Davidson diagonalization with overlap
     ethr =  3.74E-06,  avg # of iterations =  5.2

     total cpu time spent up to now is       86.6 secs

     total energy              =    -840.19072076 Ry
     estimated scf accuracy    <       0.00028312 Ry

     iteration #  8     ecut=    60.00 Ry     beta= 0.70
     Davidson diagonalization with overlap
     ethr =  5.44E-07,  avg # of iterations =  4.2

     total cpu time spent up to now is       93.8 secs

     total energy              =    -840.19075711 Ry
     estimated scf accuracy    <       0.00002813 Ry

     iteration #  9     ecut=    60.00 Ry     beta= 0.70
     Davidson diagonalization with overlap
     ethr =  5.41E-08,  avg # of iterations =  4.2

     total cpu time spent up to now is      101.7 secs

     total energy              =    -840.19076215 Ry
     estimated scf accuracy    <       0.00000156 Ry

     iteration # 10     ecut=    60.00 Ry     beta= 0.70
     Davidson diagonalization with overlap
     ethr =  2.99E-09,  avg # of iterations =  5.3

     total cpu time spent up to now is      110.0 secs

     total energy              =    -840.19076262 Ry
     estimated scf accuracy    <       0.00000012 Ry

     iteration # 11     ecut=    60.00 Ry     beta= 0.70
     Davidson diagonalization with overlap
     ethr =  2.28E-10,  avg # of iterations =  2.9

     total cpu time spent up to now is      118.1 secs

     total energy              =    -840.19078466 Ry
     estimated scf accuracy    <       0.00001780 Ry

     iteration # 12     ecut=    60.00 Ry     beta= 0.70
     Davidson diagonalization with overlap
     ethr =  2.28E-10,  avg # of iterations =  1.0

     total cpu time spent up to now is      124.1 secs

     total energy              =    -840.19078455 Ry
     estimated scf accuracy    <       0.00001771 Ry

     iteration # 13     ecut=    60.00 Ry     beta= 0.70
     Davidson diagonalization with overlap
     ethr =  2.28E-10,  avg # of iterations =  2.0

     total cpu time spent up to now is      131.6 secs

     total energy              =    -840.19078402 Ry
     estimated scf accuracy    <       0.00001731 Ry

     iteration # 14     ecut=    60.00 Ry     beta= 0.70
     Davidson diagonalization with overlap
     ethr =  2.28E-10,  avg # of iterations =  5.0

     total cpu time spent up to now is      139.7 secs

     total energy              =    -840.19078297 Ry
     estimated scf accuracy    <       0.00001442 Ry

     iteration # 15     ecut=    60.00 Ry     beta= 0.70
     Davidson diagonalization with overlap
     ethr =  2.28E-10,  avg # of iterations =  5.5

     total cpu time spent up to now is      149.2 secs

     total energy              =    -840.19078349 Ry
     estimated scf accuracy    <       0.00000889 Ry

     iteration # 16     ecut=    60.00 Ry     beta= 0.70
     Davidson diagonalization with overlap
     ethr =  2.28E-10,  avg # of iterations =  4.9

     total cpu time spent up to now is      156.6 secs

     total energy              =    -840.19078318 Ry
     estimated scf accuracy    <       0.00001116 Ry

     iteration # 17     ecut=    60.00 Ry     beta= 0.70
     Davidson diagonalization with overlap
     ethr =  2.28E-10,  avg # of iterations =  3.2

     total cpu time spent up to now is      163.4 secs

     total energy              =    -840.19078274 Ry
     estimated scf accuracy    <       0.00000970 Ry

     iteration # 18     ecut=    60.00 Ry     beta= 0.70
     Davidson diagonalization with overlap
     ethr =  2.28E-10,  avg # of iterations =  5.2

     total cpu time spent up to now is      172.1 secs

     total energy              =    -840.19078033 Ry
     estimated scf accuracy    <       0.00000714 Ry

     iteration # 19     ecut=    60.00 Ry     beta= 0.70
     Davidson diagonalization with overlap
     ethr =  2.28E-10,  avg # of iterations =  6.7

     total cpu time spent up to now is      183.5 secs

     End of self-consistent calculation

          k = 0.0000 0.0000 0.0000 (  4831 PWs)   bands (ev):

  -122.5261-121.4434 -77.6465 -76.5087 -76.4091 -76.4091 -75.4002 -75.4002
   -10.3561  -7.7275  -4.7853  -4.7444  -4.7444  -3.4730  -3.4730  -2.8402
    -2.8402  -2.3783  -2.2255  -2.2255   1.0001   3.1263   3.1263   5.0832
     6.3712   6.3930

          k = 0.0000 0.0000 0.1017 (  4861 PWs)   bands (ev):

  -122.5261-121.4434 -77.6465 -76.5087 -76.4091 -76.4091 -75.4002 -75.4002
   -10.3543  -7.7305  -4.7872  -4.7443  -4.7443  -3.4737  -3.4737  -2.8402
    -2.8402  -2.4063  -2.2255  -2.2255   1.1322   3.1306   3.1306   4.7411
     6.3815   6.3815

          k = 0.0000 0.0000 0.2034 (  4878 PWs)   bands (ev):

  -122.5261-121.4434 -77.6465 -76.5087 -76.4091 -76.4091 -75.4002 -75.4002
   -10.3507  -7.7362  -4.7901  -4.7447  -4.7447  -3.4751  -3.4751  -2.8399
    -2.8399  -2.4575  -2.2254  -2.2254   1.4332   3.1397   3.1397   4.1872
     6.3583   6.3583

          k = 0.0000 0.0000-0.3051 (  4902 PWs)   bands (ev):

  -122.5261-121.4434 -77.6465 -76.5087 -76.4091 -76.4091 -75.4002 -75.4002
   -10.3489  -7.7391  -4.7915  -4.7452  -4.7452  -3.4761  -3.4761  -2.8400
    -2.8400  -2.4818  -2.2256  -2.2256   1.6139   3.1440   3.1440   3.9158
     6.3464   6.3464

          k = 0.0000 0.1925 0.0000 (  4848 PWs)   bands (ev):

  -122.5261-121.4434 -77.6465 -76.5087 -76.4091 -76.4091 -75.4002 -75.4002
   -10.2866  -7.7144  -4.8259  -4.7483  -4.6577  -3.5014  -3.4718  -2.8496
    -2.8309  -2.4256  -2.1874  -2.0990   1.1681   2.1444   2.8174   5.2817
     5.7654   6.5021

          k = 0.0000 0.1925 0.1017 (  4853 PWs)   bands (ev):

  -122.5261-121.4434 -77.6465 -76.5087 -76.4091 -76.4091 -75.4002 -75.4002
   -10.2851  -7.7166  -4.8266  -4.7482  -4.6585  -3.5017  -3.4725  -2.8496
    -2.8309  -2.4347  -2.1874  -2.1105   1.2610   2.1325   2.8243   5.2038
     5.7224   6.4761

          k = 0.0000 0.1925 0.2034 (  4865 PWs)   bands (ev):

  -122.5261-121.4434 -77.6465 -76.5087 -76.4091 -76.4091 -75.4002 -75.4002
   -10.2821  -7.7209  -4.8282  -4.7484  -4.6602  -3.5028  -3.4738  -2.8502
    -2.8306  -2.4544  -2.1872  -2.1302   1.4660   2.1151   2.8362   4.8287
     5.8692   6.4350

          k = 0.0000 0.1925-0.3051 (  4854 PWs)   bands (ev):

  -122.5261-121.4434 -77.6465 -76.5087 -76.4091 -76.4091 -75.4002 -75.4002
   -10.2806  -7.7231  -4.8284  -4.7484  -4.6607  -3.5029  -3.4742  -2.8509
    -2.8300  -2.4651  -2.1867  -2.1387   1.5809   2.1115   2.8413   4.6111
     5.9611   6.4200

          k = 0.0000 0.3849 0.0000 (  4840 PWs)   bands (ev):

  -122.5261-121.4434 -77.6465 -76.5087 -76.4091 -76.4091 -75.4002 -75.4002
   -10.1423  -7.6882  -4.8578  -4.7562  -4.5072  -3.5444  -3.4693  -2.8660
    -2.8123  -2.4922  -2.1047  -1.9047   0.8734   1.6217   2.2985   4.6770
     5.5788   6.5886

          k = 0.0000 0.3849 0.1017 (  4840 PWs)   bands (ev):

  -122.5261-121.4434 -77.6465 -76.5087 -76.4091 -76.4091 -75.4002 -75.4002
   -10.1414  -7.6889  -4.8581  -4.7561  -4.5085  -3.5446  -3.4700  -2.8664
    -2.8122  -2.4894  -2.1046  -1.9109   0.8170   1.6692   2.3066   4.9473
     5.4602   6.5471

          k = 0.0000 0.3849 0.2034 (  4849 PWs)   bands (ev):

  -122.5261-121.4434 -77.6465 -76.5087 -76.4091 -76.4091 -75.4002 -75.4002
   -10.1396  -7.6903  -4.8585  -4.7560  -4.5110  -3.5455  -3.4714  -2.8681
    -2.8124  -2.4845  -2.1048  -1.9244   0.7345   1.7661   2.3217   5.1868
     5.4574   6.4757

          k = 0.0000 0.3849-0.3051 (  4840 PWs)   bands (ev):

  -122.5261-121.4434 -77.6465 -76.5087 -76.4091 -76.4091 -75.4002 -75.4002
   -10.1387  -7.6910  -4.8585  -4.7557  -4.5123  -3.5461  -3.4718  -2.8689
    -2.8119  -2.4822  -2.1044  -1.9315   0.7049   1.8192   2.3290   5.0160
     5.6754   6.4458

          k = 0.0000-0.5774 0.0000 (  4850 PWs)   bands (ev):

  -122.5261-121.4434 -77.6465 -76.5087 -76.4091 -76.4091 -75.4002 -75.4002
   -10.0673  -7.6753  -4.8693  -4.7600  -4.4185  -3.5592  -3.4678  -2.8744
    -2.8037  -2.5214  -2.0604  -1.8475   0.4383   1.8160   2.0693   4.7605
     4.9432   6.5935

          k = 0.0000-0.5774 0.1017 (  4844 PWs)   bands (ev):

  -122.5261-121.4434 -77.6465 -76.5087 -76.4091 -76.4091 -75.4002 -75.4002
   -10.0667  -7.6752  -4.8693  -4.7600  -4.4200  -3.5598  -3.4687  -2.8751
    -2.8034  -2.5150  -2.0603  -1.8473   0.3903   1.8133   2.0773   4.7478
     5.1944   6.5499

          k = 0.0000-0.5774 0.2034 (  4868 PWs)   bands (ev):

  -122.5261-121.4434 -77.6465 -76.5087 -76.4091 -76.4091 -75.4002 -75.4002
   -10.0657  -7.6751  -4.8694  -4.7603  -4.4234  -3.5611  -3.4706  -2.8768
    -2.8034  -2.5024  -2.0601  -1.8474   0.3012   1.7974   2.0931   4.9622
     5.4660   6.4646

          k = 0.0000-0.5774-0.3051 (  4852 PWs)   bands (ev):

  -122.5261-121.4434 -77.6465 -76.5087 -76.4091 -76.4091 -75.4002 -75.4002
   -10.0651  -7.6750  -4.8692  -4.7595  -4.4250  -3.5615  -3.4707  -2.8780
    -2.8031  -2.4959  -2.0598  -1.8475   0.2597   1.7857   2.1019   5.2321
     5.4190   6.4246

          k = 0.1667 0.2887 0.0000 (  4853 PWs)   bands (ev):

  -122.5261-121.4434 -77.6465 -76.5087 -76.4091 -76.4091 -75.4002 -75.4002
   -10.1794  -7.6946  -4.8460  -4.7613  -4.5458  -3.5322  -3.4737  -2.8571
    -2.8220  -2.4788  -2.1228  -1.9446   1.2249   1.5500   2.1665   4.9565
     5.7771   6.3860

          k = 0.1667 0.2887 0.1017 (  4854 PWs)   bands (ev):

  -122.5261-121.4434 -77.6465 -76.5087 -76.4091 -76.4091 -75.4002 -75.4002
   -10.1783  -7.6957  -4.8462  -4.7611  -4.5471  -3.5325  -3.4742  -2.8577
    -2.8222  -2.4787  -2.1230  -1.9541   1.1634   1.6415   2.1809   4.9487
     5.8531   6.3460

          k = 0.1667 0.2887 0.2034 (  4849 PWs)   bands (ev):

  -122.5261-121.4434 -77.6465 -76.5087 -76.4091 -76.4091 -75.4002 -75.4002
   -10.1762  -7.6978  -4.8469  -4.7608  -4.5493  -3.5332  -3.4754  -2.8587
    -2.8220  -2.4782  -2.1230  -1.9725   1.0926   1.7648   2.2119   5.0298
     5.8716   6.2704

          k = 0.1667 0.2887-0.3051 (  4864 PWs)   bands (ev):

  -122.5261-121.4434 -77.6465 -76.5087 -76.4091 -76.4091 -75.4002 -75.4002
   -10.1751  -7.6990  -4.8474  -4.7607  -4.5506  -3.5338  -3.4760  -2.8593
    -2.8223  -2.4781  -2.1234  -1.9816   1.0685   1.8107   2.2280   5.1436
     5.7781   6.2320

          k = 0.1667 0.4811 0.0000 (  4849 PWs)   bands (ev):

  -122.5261-121.4434 -77.6465 -76.5087 -76.4091 -76.4091 -75.4002 -75.4002
   -10.0683  -7.6747  -4.8536  -4.7775  -4.4168  -3.5520  -3.4771  -2.8624
    -2.8168  -2.5255  -2.0606  -1.8158   0.6414   1.5910   1.8244   4.7845
     5.3735   6.2395

          k = 0.1667 0.4811 0.1017 (  4845 PWs)   bands (ev):

  -122.5261-121.4434 -77.6465 -76.5087 -76.4091 -76.4091 -75.4002 -75.4002
   -10.0678  -7.6746  -4.8536  -4.7775  -4.4182  -3.5522  -3.4780  -2.8630
    -2.8165  -2.5199  -2.0607  -1.8169   0.5923   1.5871   1.8349   4.9711
     5.4413   6.1553

          k = 0.1667 0.4811 0.2034 (  4842 PWs)   bands (ev):

  -122.5261-121.4434 -77.6465 -76.5087 -76.4091 -76.4091 -75.4002 -75.4002
   -10.0667  -7.6745  -4.8536  -4.7773  -4.4212  -3.5530  -3.4796  -2.8641
    -2.8164  -2.5088  -2.0610  -1.8198   0.5057   1.5934   1.8401   5.2710
     5.6456   6.0522

          k = 0.1667 0.4811-0.3051 (  4840 PWs)   bands (ev):

  -122.5261-121.4434 -77.6465 -76.5087 -76.4091 -76.4091 -75.4002 -75.4002
   -10.0661  -7.6744  -4.8535  -4.7772  -4.4228  -3.5533  -3.4802  -2.8645
    -2.8164  -2.5033  -2.0613  -1.8216   0.4676   1.6013   1.8370   5.3835
     5.7038   6.1047

          k = 0.3333 0.5774 0.0000 (  4866 PWs)   bands (ev):

  -122.5261-121.4434 -77.6465 -76.5087 -76.4091 -76.4091 -75.4002 -75.4002
   -10.0315  -7.6674  -4.8248  -4.8145  -4.3662  -3.5486  -3.4876  -2.8449
    -2.8375  -2.5423  -2.0492  -1.7410   0.7673   0.9641   1.9034   4.9146
     5.3713   5.9110

          k = 0.3333 0.5774 0.1017 (  4839 PWs)   bands (ev):

  -122.5261-121.4434 -77.6465 -76.5087 -76.4091 -76.4091 -75.4002 -75.4002
   -10.0310  -7.6669  -4.8247  -4.8145  -4.3673  -3.5488  -3.4886  -2.8444
    -2.8371  -2.5358  -2.0489  -1.7405   0.7149   0.9762   1.8784   5.0740
     5.5152   5.8047

          k = 0.3333 0.5774 0.2034 (  4830 PWs)   bands (ev):

  -122.5261-121.4434 -77.6465 -76.5087 -76.4091 -76.4091 -75.4002 -75.4002
   -10.0303  -7.6661  -4.8242  -4.8140  -4.3708  -3.5490  -3.4903  -2.8441
    -2.8373  -2.5236  -2.0490  -1.7405   0.6153   1.0009   1.8305   5.4198
     5.6174   5.8569

          k = 0.3333 0.5774-0.3051 (  4836 PWs)   bands (ev):

  -122.5261-121.4434 -77.6465 -76.5087 -76.4091 -76.4091 -75.4002 -75.4002
   -10.0300  -7.6657  -4.8243  -4.8141  -4.3728  -3.5493  -3.4915  -2.8439
    -2.8372  -2.5177  -2.0490  -1.7404   0.5677   1.0133   1.8075   5.5330
     5.6131   6.0789

          k = 0.0000-0.1925 0.1017 (  4853 PWs)   bands (ev):

  -122.5261-121.4434 -77.6465 -76.5087 -76.4091 -76.4091 -75.4002 -75.4002
   -10.2851  -7.7166  -4.8264  -4.7484  -4.6586  -3.5019  -3.4723  -2.8499
    -2.8308  -2.4355  -2.1873  -2.1100   1.2597   2.1546   2.8224   4.9443
     6.0248   6.4869

          k = 0.0000-0.1925 0.2034 (  4865 PWs)   bands (ev):

  -122.5261-121.4434 -77.6465 -76.5087 -76.4091 -76.4091 -75.4002 -75.4002
   -10.2821  -7.7209  -4.8279  -4.7485  -4.6602  -3.5029  -3.4737  -2.8505
    -2.8305  -2.4552  -2.1870  -2.1298   1.4608   2.1446   2.8340   4.6656
     6.0509   6.4458

          k = 0.0000-0.3849 0.1017 (  4840 PWs)   bands (ev):

  -122.5261-121.4434 -77.6465 -76.5087 -76.4091 -76.4091 -75.4002 -75.4002
   -10.1414  -7.6889  -4.8578  -4.7562  -4.5087  -3.5450  -3.4698  -2.8668
    -2.8121  -2.4902  -2.1046  -1.9118   0.8233   1.7046   2.3053   4.5369
     5.8167   6.5566

          k = 0.0000-0.3849 0.2034 (  4849 PWs)   bands (ev):

  -122.5261-121.4434 -77.6465 -76.5087 -76.4091 -76.4091 -75.4002 -75.4002
   -10.1396  -7.6903  -4.8583  -4.7561  -4.5111  -3.5459  -3.4713  -2.8686
    -2.8123  -2.4853  -2.1047  -1.9253   0.7416   1.8007   2.3204   4.6686
     5.9027   6.4848

          k =-0.1667-0.4811 0.1017 (  4845 PWs)   bands (ev):

  -122.5261-121.4434 -77.6465 -76.5087 -76.4091 -76.4091 -75.4002 -75.4002
   -10.0678  -7.6746  -4.8535  -4.7775  -4.4182  -3.5524  -3.4780  -2.8631
    -2.8165  -2.5200  -2.0607  -1.8176   0.5969   1.5950   1.8334   4.8011
     5.5734   6.1945

          k =-0.1667-0.4811 0.2034 (  4842 PWs)   bands (ev):

  -122.5261-121.4434 -77.6465 -76.5087 -76.4091 -76.4091 -75.4002 -75.4002
   -10.0667  -7.6745  -4.8535  -4.7773  -4.4212  -3.5531  -3.4795  -2.8642
    -2.8164  -2.5089  -2.0610  -1.8206   0.5102   1.6004   1.8385   5.0652
     5.7596   6.1412

     highest occupied level (ev):     6.5935

!    total energy              =    -840.19078144 Ry
     estimated scf accuracy    <       0.00000009 Ry

     The total energy is the sum of the following terms:
     one-electron contribution =    -862.36639105 Ry
     hartree contribution      =     431.26431367 Ry
     xc contribution           =     -82.50908385 Ry
     ewald contribution        =    -326.57962021 Ry

     convergence has been achieved in  19 iterations

     Forces acting on atoms (cartesian axes, Ry/au):

     atom    1 type  1   force =     0.00000000   -0.00000000   -1.55385892
     atom    2 type  2   force =     0.00000000    0.00000000    1.40039537
     atom    3 type  1   force =     0.00000000   -0.00000000   -1.48275541
     atom    4 type  2   force =     0.00000000    0.00000000    1.63621896
     The non-local contrib.  to forces
     atom    1 type  1   force =     0.00000000    0.00000000    1.15377603
     atom    2 type  2   force =     0.00000000    0.00000000    1.09098207
     atom    3 type  1   force =     0.00000000   -0.00000000    0.46921315
     atom    4 type  2   force =     0.00000000    0.00000000    1.33702476
     The ionic contribution  to forces
     atom    1 type  1   force =    -0.00000000   -0.00000000  -62.11893116
     atom    2 type  2   force =    -0.00000000   -0.00000001   21.68846785
     atom    3 type  1   force =    -0.00000000    0.00000001    7.69414732
     atom    4 type  2   force =     0.00000000    0.00000000   32.73631599
     The local contribution  to forces
     atom    1 type  1   force =     0.00000000   -0.00000000   59.41181291
     atom    2 type  2   force =     0.00000000   -0.00000000  -21.37853729
     atom    3 type  1   force =     0.00000000    0.00000051   -9.64451642
     atom    4 type  2   force =     0.00000000    0.00000001  -32.43737562
     The core correction contribution to forces
     atom    1 type  1   force =     0.00000000    0.00000000    0.00000000
     atom    2 type  2   force =     0.00000000    0.00000000    0.00000000
     atom    3 type  1   force =     0.00000000    0.00000000    0.00000000
     atom    4 type  2   force =     0.00000000    0.00000000    0.00000000
     The Hubbard contrib.    to forces
     atom    1 type  1   force =     0.00000000    0.00000000    0.00000000
     atom    2 type  2   force =     0.00000000    0.00000000    0.00000000
     atom    3 type  1   force =     0.00000000    0.00000000    0.00000000
     atom    4 type  2   force =     0.00000000    0.00000000    0.00000000
     The SCF correction term to forces
     atom    1 type  1   force =     0.00000000    0.00000000   -0.00051477
     atom    2 type  2   force =     0.00000000    0.00000000   -0.00051532
     atom    3 type  1   force =     0.00000000   -0.00000000   -0.00159752
     atom    4 type  2   force =    -0.00000000   -0.00000000    0.00025578

     Total force =     3.041605     Total SCF correction =     0.001774


     Computing stress (Cartesian axis) and pressure

          total   stress  (Ry/bohr**3)                   (kbar)     P=      725.73
   0.00041724   0.00000000   0.00000000           61.38        0.00        0.00
   0.00000000   0.00041724   0.00000000            0.00       61.38        0.00
   0.00000000   0.00000000   0.01396572            0.00        0.00     2054.43


     BFGS Geometry Optimization
     Energy error            =      0.0E+00 Ry
     Gradient error          =      1.6E+00 Ry/Bohr
     Cell gradient error     =      2.1E+03 kbar

     number of scf cycles    =   1
     number of bfgs steps    =   0

     enthalpy           new  =    -840.1907814402 Ry

     new trust radius        =       0.5000000000 bohr
     new conv_thr            =       0.0000001000 Ry

     new unit-cell volume =    684.25356 a.u.^3 (   101.39592 Ang^3 )
     density =      3.19151 g/cm^3

CELL_PARAMETERS (alat=  7.57969094)
   1.003004450   0.000000000   0.000000000
  -0.501502225   0.868627334   0.000000000
   0.000000000   0.000000000   1.803541833

ATOMIC_POSITIONS (alat)
Zn            0.0000000000       -0.0000000000       -0.0649851476
S             0.0000000000        0.0000000000        0.4683871793
Zn            0.0000000000        0.5790848891        0.4882704608
S             0.0000000000        0.5790848891        1.0285316751



     Writing config-only to output data dir /home/paolo/project_labqsm/ZnS_wurtzite/SCRATCH/zns_w.save/
     NEW-OLD atomic charge density approx. for the potential
     extrapolated charge   57.02773, renormalised to   52.00000

     total cpu time spent up to now is      194.0 secs

     Self-consistent Calculation

     iteration #  1     ecut=    60.00 Ry     beta= 0.70
     Davidson diagonalization with overlap
     c_bands:  1 eigenvalues not converged
     c_bands:  1 eigenvalues not converged
     c_bands:  1 eigenvalues not converged
     c_bands:  1 eigenvalues not converged
     c_bands:  1 eigenvalues not converged
     c_bands:  1 eigenvalues not converged
     c_bands:  1 eigenvalues not converged
     ethr =  1.00E-06,  avg # of iterations = 36.5

     total cpu time spent up to now is      256.6 secs

     total energy              =    -686.95084614 Ry
     estimated scf accuracy    <     151.98582501 Ry

     iteration #  2     ecut=    60.00 Ry     beta= 0.70
     Davidson diagonalization with overlap
     ethr =  1.00E-02,  avg # of iterations = 14.4

     total cpu time spent up to now is      282.1 secs

     total energy              =    -870.07093498 Ry
     estimated scf accuracy    <     260.71891133 Ry

     iteration #  3     ecut=    60.00 Ry     beta= 0.70
     Davidson diagonalization with overlap
     ethr =  1.00E-02,  avg # of iterations =  4.6

     total cpu time spent up to now is      292.2 secs

     total energy              =    -853.32521052 Ry
     estimated scf accuracy    <      85.62106117 Ry

     iteration #  4     ecut=    60.00 Ry     beta= 0.70
     Davidson diagonalization with overlap
     ethr =  1.00E-02,  avg # of iterations =  5.4

     total cpu time spent up to now is      300.7 secs

     total energy              =    -847.19353650 Ry
     estimated scf accuracy    <      38.42108583 Ry

     iteration #  5     ecut=    60.00 Ry     beta= 0.70
     Davidson diagonalization with overlap
     ethr =  1.00E-02,  avg # of iterations =  4.8

     total cpu time spent up to now is      308.0 secs

     total energy              =    -843.25396350 Ry
     estimated scf accuracy    <      20.10788081 Ry

     iteration #  6     ecut=    60.00 Ry     beta= 0.70
     Davidson diagonalization with overlap
     ethr =  1.00E-02,  avg # of iterations =  4.4

     total cpu time spent up to now is      315.3 secs

     total energy              =    -843.70245179 Ry
     estimated scf accuracy    <       7.45173989 Ry

     iteration #  7     ecut=    60.00 Ry     beta= 0.70
     Davidson diagonalization with overlap
     ethr =  1.00E-02,  avg # of iterations =  1.1

     total cpu time spent up to now is      321.4 secs

     total energy              =    -842.97444014 Ry
     estimated scf accuracy    <       6.98924692 Ry

     iteration #  8     ecut=    60.00 Ry     beta= 0.70
     Davidson diagonalization with overlap
     ethr =  1.00E-02,  avg # of iterations =  4.2

     total cpu time spent up to now is      328.5 secs

     total energy              =    -843.36050738 Ry
     estimated scf accuracy    <      10.46436394 Ry

     iteration #  9     ecut=    60.00 Ry     beta= 0.70
     Davidson diagonalization with overlap
     ethr =  1.00E-02,  avg # of iterations =  1.1

     total cpu time spent up to now is      334.7 secs

     total energy              =    -843.26250790 Ry
     estimated scf accuracy    <      10.25659023 Ry

     iteration # 10     ecut=    60.00 Ry     beta= 0.70
     Davidson diagonalization with overlap
     ethr =  1.00E-02,  avg # of iterations =  1.7

     total cpu time spent up to now is      341.0 secs

     total energy              =    -842.58988584 Ry
     estimated scf accuracy    <      11.00478811 Ry

     iteration # 11     ecut=    60.00 Ry     beta= 0.70
     Davidson diagonalization with overlap
     ethr =  1.00E-02,  avg # of iterations =  2.2

     total cpu time spent up to now is      347.6 secs

     total energy              =    -841.99378410 Ry
     estimated scf accuracy    <       9.84135854 Ry

     iteration # 12     ecut=    60.00 Ry     beta= 0.70
     Davidson diagonalization with overlap
     ethr =  1.00E-02,  avg # of iterations =  1.3

     total cpu time spent up to now is      353.8 secs

     total energy              =    -840.79079137 Ry
     estimated scf accuracy    <       7.41781224 Ry

     iteration # 13     ecut=    60.00 Ry     beta= 0.70
     Davidson diagonalization with overlap
     ethr =  1.00E-02,  avg # of iterations =  4.4

     total cpu time spent up to now is      360.9 secs

     total energy              =    -841.46669091 Ry
     estimated scf accuracy    <       0.64157104 Ry

     iteration # 14     ecut=    60.00 Ry     beta= 0.70
     Davidson diagonalization with overlap
     ethr =  1.23E-03,  avg # of iterations =  2.0

     total cpu time spent up to now is      367.8 secs

     total energy              =    -841.63403192 Ry
     estimated scf accuracy    <       0.88375999 Ry

     iteration # 15     ecut=    60.00 Ry     beta= 0.70
     Davidson diagonalization with overlap
     ethr =  1.23E-03,  avg # of iterations =  3.5

     total cpu time spent up to now is      374.8 secs

     total energy              =    -841.83630388 Ry
     estimated scf accuracy    <       2.01077794 Ry

     iteration # 16     ecut=    60.00 Ry     beta= 0.70
     Davidson diagonalization with overlap
     ethr =  1.23E-03,  avg # of iterations =  5.9

     total cpu time spent up to now is      382.3 secs

     total energy              =    -841.99344395 Ry
     estimated scf accuracy    <       4.84151699 Ry

     iteration # 17     ecut=    60.00 Ry     beta= 0.70
     Davidson diagonalization with overlap
     ethr =  1.23E-03,  avg # of iterations =  1.6

     total cpu time spent up to now is      388.8 secs

     total energy              =    -839.77622901 Ry
     estimated scf accuracy    <       5.57730029 Ry

     iteration # 18     ecut=    60.00 Ry     beta= 0.70
     Davidson diagonalization with overlap
     ethr =  1.23E-03,  avg # of iterations =  6.1

     total cpu time spent up to now is      399.9 secs

     total energy              =    -841.72982909 Ry
     estimated scf accuracy    <       1.66628710 Ry

     iteration # 19     ecut=    60.00 Ry     beta= 0.70
     Davidson diagonalization with overlap
     ethr =  1.23E-03,  avg # of iterations =  1.1

     total cpu time spent up to now is      406.0 secs

     total energy              =    -841.59373007 Ry
     estimated scf accuracy    <       1.36505546 Ry

     iteration # 20     ecut=    60.00 Ry     beta= 0.70
     Davidson diagonalization with overlap
     ethr =  1.23E-03,  avg # of iterations =  2.0

     total cpu time spent up to now is      412.6 secs

     total energy              =    -841.41507147 Ry
     estimated scf accuracy    <       0.93544839 Ry

     iteration # 21     ecut=    60.00 Ry     beta= 0.70
     Davidson diagonalization with overlap
     ethr =  1.23E-03,  avg # of iterations =  2.6

     total cpu time spent up to now is      419.7 secs

     total energy              =    -841.37341929 Ry
     estimated scf accuracy    <       0.39557801 Ry

     iteration # 22     ecut=    60.00 Ry     beta= 0.70
     Davidson diagonalization with overlap
     ethr =  7.61E-04,  avg # of iterations =  2.7

     total cpu time spent up to now is      426.6 secs

     total energy              =    -841.37235949 Ry
     estimated scf accuracy    <       0.14894706 Ry

     iteration # 23     ecut=    60.00 Ry     beta= 0.70
     Davidson diagonalization with overlap
     ethr =  2.86E-04,  avg # of iterations =  4.2

     total cpu time spent up to now is      433.6 secs

     total energy              =    -841.38319748 Ry
     estimated scf accuracy    <       0.04337950 Ry

     iteration # 24     ecut=    60.00 Ry     beta= 0.70
     Davidson diagonalization with overlap
     ethr =  8.34E-05,  avg # of iterations =  2.2

     total cpu time spent up to now is      440.3 secs

     total energy              =    -841.37156650 Ry
     estimated scf accuracy    <       0.04862921 Ry

     iteration # 25     ecut=    60.00 Ry     beta= 0.70
     Davidson diagonalization with overlap
     ethr =  8.34E-05,  avg # of iterations =  3.4

     total cpu time spent up to now is      447.5 secs

     total energy              =    -841.37105058 Ry
     estimated scf accuracy    <       0.01651868 Ry

     iteration # 26     ecut=    60.00 Ry     beta= 0.70
     Davidson diagonalization with overlap
     ethr =  3.18E-05,  avg # of iterations =  7.3

     total cpu time spent up to now is      455.4 secs

     total energy              =    -841.38326631 Ry
     estimated scf accuracy    <       0.05148278 Ry

     iteration # 27     ecut=    60.00 Ry     beta= 0.70
     Davidson diagonalization with overlap
     ethr =  3.18E-05,  avg # of iterations =  1.0

     total cpu time spent up to now is      461.6 secs

     total energy              =    -841.38348975 Ry
     estimated scf accuracy    <       0.05117680 Ry

     iteration # 28     ecut=    60.00 Ry     beta= 0.70
     Davidson diagonalization with overlap
     ethr =  3.18E-05,  avg # of iterations =  1.0

     total cpu time spent up to now is      467.7 secs

     total energy              =    -841.37379530 Ry
     estimated scf accuracy    <       0.05195519 Ry

     iteration # 29     ecut=    60.00 Ry     beta= 0.70
     Davidson diagonalization with overlap
     ethr =  3.18E-05,  avg # of iterations =  4.2

     total cpu time spent up to now is      474.8 secs

     total energy              =    -841.37620902 Ry
     estimated scf accuracy    <       0.00456507 Ry

     iteration # 30     ecut=    60.00 Ry     beta= 0.70
     Davidson diagonalization with overlap
     ethr =  8.78E-06,  avg # of iterations =  4.9

     total cpu time spent up to now is      482.4 secs

     total energy              =    -841.37664045 Ry
     estimated scf accuracy    <       0.00034922 Ry

     iteration # 31     ecut=    60.00 Ry     beta= 0.70
     Davidson diagonalization with overlap
     ethr =  6.72E-07,  avg # of iterations =  4.2

     total cpu time spent up to now is      490.0 secs

     total energy              =    -841.37670757 Ry
     estimated scf accuracy    <       0.00003457 Ry

     iteration # 32     ecut=    60.00 Ry     beta= 0.70
     Davidson diagonalization with overlap
     ethr =  6.65E-08,  avg # of iterations =  5.6

     total cpu time spent up to now is      499.1 secs

     total energy              =    -841.37716258 Ry
     estimated scf accuracy    <       0.00038420 Ry

     iteration # 33     ecut=    60.00 Ry     beta= 0.70
     Davidson diagonalization with overlap
     ethr =  6.65E-08,  avg # of iterations =  5.4

     total cpu time spent up to now is      507.0 secs

     total energy              =    -841.37714987 Ry
     estimated scf accuracy    <       0.00010404 Ry

     iteration # 34     ecut=    60.00 Ry     beta= 0.70
     Davidson diagonalization with overlap
     ethr =  6.65E-08,  avg # of iterations =  6.6

     total cpu time spent up to now is      514.9 secs

     total energy              =    -841.37973474 Ry
     estimated scf accuracy    <       0.01028197 Ry

     iteration # 35     ecut=    60.00 Ry     beta= 0.70
     Davidson diagonalization with overlap
     ethr =  6.65E-08,  avg # of iterations =  1.4

     total cpu time spent up to now is      521.1 secs

     total energy              =    -841.37960265 Ry
     estimated scf accuracy    <       0.01003399 Ry

     iteration # 36     ecut=    60.00 Ry     beta= 0.70
     Davidson diagonalization with overlap
     ethr =  6.65E-08,  avg # of iterations =  4.0

     total cpu time spent up to now is      528.2 secs

     total energy              =    -841.37913475 Ry
     estimated scf accuracy    <       0.00908483 Ry

     iteration # 37     ecut=    60.00 Ry     beta= 0.70
     Davidson diagonalization with overlap
     ethr =  6.65E-08,  avg # of iterations =  6.5

     total cpu time spent up to now is      536.5 secs

     total energy              =    -841.37844721 Ry
     estimated scf accuracy    <       0.00601022 Ry

     iteration # 38     ecut=    60.00 Ry     beta= 0.70
     Davidson diagonalization with overlap
     ethr =  6.65E-08,  avg # of iterations =  7.7

     total cpu time spent up to now is      546.5 secs

     total energy              =    -841.37848396 Ry
     estimated scf accuracy    <       0.00189054 Ry

     iteration # 39     ecut=    60.00 Ry     beta= 0.70
     Davidson diagonalization with overlap
     ethr =  6.65E-08,  avg # of iterations =  5.3

     total cpu time spent up to now is      554.0 secs

     total energy              =    -841.37827591 Ry
     estimated scf accuracy    <       0.00126009 Ry

     iteration # 40     ecut=    60.00 Ry     beta= 0.70
     Davidson diagonalization with overlap
     ethr =  6.65E-08,  avg # of iterations =  6.8

     total cpu time spent up to now is      562.9 secs

     total energy              =    -841.37844178 Ry
     estimated scf accuracy    <       0.00007459 Ry

     iteration # 41     ecut=    60.00 Ry     beta= 0.70
     Davidson diagonalization with overlap
     ethr =  6.65E-08,  avg # of iterations =  1.3

     total cpu time spent up to now is      569.3 secs

     total energy              =    -841.37843384 Ry
     estimated scf accuracy    <       0.00009472 Ry

     iteration # 42     ecut=    60.00 Ry     beta= 0.70
     Davidson diagonalization with overlap
     ethr =  6.65E-08,  avg # of iterations =  1.0

     total cpu time spent up to now is      575.3 secs

     total energy              =    -841.37843987 Ry
     estimated scf accuracy    <       0.00007523 Ry

     iteration # 43     ecut=    60.00 Ry     beta= 0.70
     Davidson diagonalization with overlap
     ethr =  6.65E-08,  avg # of iterations =  1.0

     total cpu time spent up to now is      581.2 secs

     total energy              =    -841.37843212 Ry
     estimated scf accuracy    <       0.00008934 Ry

     iteration # 44     ecut=    60.00 Ry     beta= 0.70
     Davidson diagonalization with overlap
     ethr =  6.65E-08,  avg # of iterations =  1.1

     total cpu time spent up to now is      587.3 secs

     total energy              =    -841.37842724 Ry
     estimated scf accuracy    <       0.00006824 Ry

     iteration # 45     ecut=    60.00 Ry     beta= 0.70
     Davidson diagonalization with overlap
     ethr =  6.65E-08,  avg # of iterations =  2.9

     total cpu time spent up to now is      593.9 secs

     total energy              =    -841.37842947 Ry
     estimated scf accuracy    <       0.00003358 Ry

     iteration # 46     ecut=    60.00 Ry     beta= 0.70
     Davidson diagonalization with overlap
     ethr =  6.46E-08,  avg # of iterations =  1.0

     total cpu time spent up to now is      600.0 secs

     total energy              =    -841.37842607 Ry
     estimated scf accuracy    <       0.00003508 Ry

     iteration # 47     ecut=    60.00 Ry     beta= 0.70
     Davidson diagonalization with overlap
     ethr =  6.46E-08,  avg # of iterations =  1.6

     total cpu time spent up to now is      606.2 secs

     total energy              =    -841.37842746 Ry
     estimated scf accuracy    <       0.00002098 Ry

     iteration # 48     ecut=    60.00 Ry     beta= 0.70
     Davidson diagonalization with overlap
     ethr =  4.03E-08,  avg # of iterations =  1.0

     total cpu time spent up to now is      612.2 secs

     total energy              =    -841.37842215 Ry
     estimated scf accuracy    <       0.00002202 Ry

     iteration # 49     ecut=    60.00 Ry     beta= 0.70
     Davidson diagonalization with overlap
     ethr =  4.03E-08,  avg # of iterations =  4.9

     total cpu time spent up to now is      619.3 secs

     total energy              =    -841.37860181 Ry
     estimated scf accuracy    <       0.00001963 Ry

     iteration # 50     ecut=    60.00 Ry     beta= 0.70
     Davidson diagonalization with overlap
     ethr =  3.77E-08,  avg # of iterations =  1.0

     total cpu time spent up to now is      625.2 secs

     total energy              =    -841.37860155 Ry
     estimated scf accuracy    <       0.00001832 Ry

     iteration # 51     ecut=    60.00 Ry     beta= 0.70
     Davidson diagonalization with overlap
     ethr =  3.52E-08,  avg # of iterations =  1.0

     total cpu time spent up to now is      631.1 secs

     total energy              =    -841.37860015 Ry
     estimated scf accuracy    <       0.00001667 Ry

     iteration # 52     ecut=    60.00 Ry     beta= 0.70
     Davidson diagonalization with overlap
     ethr =  3.21E-08,  avg # of iterations =  1.6

     total cpu time spent up to now is      637.3 secs

     total energy              =    -841.37859977 Ry
     estimated scf accuracy    <       0.00001026 Ry

     iteration # 53     ecut=    60.00 Ry     beta= 0.70
     Davidson diagonalization with overlap
     ethr =  1.97E-08,  avg # of iterations =  2.2

     total cpu time spent up to now is      643.6 secs

     total energy              =    -841.37859858 Ry
     estimated scf accuracy    <       0.00000650 Ry

     iteration # 54     ecut=    60.00 Ry     beta= 0.70
     Davidson diagonalization with overlap
     ethr =  1.25E-08,  avg # of iterations =  5.4

     total cpu time spent up to now is      650.8 secs

     total energy              =    -841.37859951 Ry
     estimated scf accuracy    <       0.00000016 Ry

     iteration # 55     ecut=    60.00 Ry     beta= 0.70
     Davidson diagonalization with overlap
     ethr =  3.03E-10,  avg # of iterations =  5.7

     total cpu time spent up to now is      658.5 secs

     total energy              =    -841.37859950 Ry
     estimated scf accuracy    <       0.00000026 Ry

     iteration # 56     ecut=    60.00 Ry     beta= 0.70
     Davidson diagonalization with overlap
     ethr =  3.03E-10,  avg # of iterations =  2.3

     total cpu time spent up to now is      665.2 secs

     total energy              =    -841.37859947 Ry
     estimated scf accuracy    <       0.00000011 Ry

     iteration # 57     ecut=    60.00 Ry     beta= 0.70
     Davidson diagonalization with overlap
     ethr =  2.05E-10,  avg # of iterations =  5.8

     total cpu time spent up to now is      672.8 secs

     End of self-consistent calculation

          k = 0.0000 0.0000 0.0000 (  4831 PWs)   bands (ev):

  -121.3425-121.1863 -75.4373 -75.4358 -75.4358 -75.3042 -75.3042 -75.2503
    -9.3450  -5.9045  -2.6527  -2.6527  -2.3852  -2.1070  -2.1070  -2.0214
    -2.0214  -1.8746  -1.8746  -1.7888  -0.2310   2.7361   2.7361   3.6039
     4.4269   5.7338

          k = 0.0000-0.0000 0.0924 (  4861 PWs)   bands (ev):

  -121.3425-121.1863 -75.4385 -75.4359 -75.4359 -75.3042 -75.3042 -75.2515
    -9.3437  -5.9130  -2.6534  -2.6534  -2.3986  -2.1078  -2.1078  -2.0220
    -2.0220  -1.8803  -1.8803  -1.8305  -0.1285   2.7379   2.7379   3.2307
     4.7740   5.7280

          k = 0.0000-0.0000 0.1848 (  4878 PWs)   bands (ev):

  -121.3425-121.1863 -75.4380 -75.4359 -75.4359 -75.3043 -75.3043 -75.2510
    -9.3406  -5.9282  -2.6547  -2.6547  -2.3923  -2.1099  -2.1099  -2.0243
    -2.0243  -1.8824  -1.8824  -1.8549   0.1010   2.7243   2.7420   2.7420
     5.2444   5.7165

          k =-0.0000 0.0000-0.2772 (  4902 PWs)   bands (ev):

  -121.3425-121.1863 -75.4376 -75.4360 -75.4360 -75.3043 -75.3043 -75.2506
    -9.3391  -5.9357  -2.6564  -2.6564  -2.3828  -2.1127  -2.1127  -2.0273
    -2.0273  -1.8843  -1.8843  -1.8669   0.2342   2.4966   2.7433   2.7433
     5.4597   5.7104

          k =-0.0000 0.1919-0.0000 (  4848 PWs)   bands (ev):

  -121.3425-121.1863 -75.4376 -75.4359 -75.4358 -75.3042 -75.3042 -75.2507
    -9.2215  -5.8667  -2.6555  -2.5918  -2.4014  -2.1111  -2.0997  -2.0330
    -2.0220  -1.9330  -1.8746  -1.7394   0.0176   1.4297   2.3792   3.9481
     4.5384   5.7059

          k =-0.0000 0.1919 0.0924 (  4853 PWs)   bands (ev):

  -121.3425-121.1863 -75.4380 -75.4359 -75.4359 -75.3042 -75.3042 -75.2510
    -9.2203  -5.8730  -2.6552  -2.5923  -2.4072  -2.1109  -2.0995  -2.0339
    -2.0227  -1.9311  -1.8792  -1.7587   0.0977   1.4035   2.3823   3.7723
     4.6818   5.6940

          k =-0.0000 0.1919 0.1848 (  4865 PWs)   bands (ev):

  -121.3425-121.1863 -75.4380 -75.4360 -75.4359 -75.3043 -75.3043 -75.2511
    -9.2177  -5.8849  -2.6565  -2.5932  -2.4088  -2.1135  -2.1022  -2.0336
    -2.0262  -1.9343  -1.8816  -1.7851   0.2778   1.3462   2.3879   3.4314
     4.9930   5.6740

          k =-0.0000 0.1919-0.2772 (  4854 PWs)   bands (ev):

  -121.3425-121.1863 -75.4379 -75.4359 -75.4359 -75.3043 -75.3042 -75.2509
    -9.2164  -5.8909  -2.6554  -2.5928  -2.4066  -2.1125  -2.1020  -2.0270
    -2.0236  -1.9362  -1.8821  -1.7980   0.3826   1.3122   2.3909   3.2623
     5.1596   5.6660

          k =-0.0000 0.3837-0.0000 (  4840 PWs)   bands (ev):

  -121.3425-121.1863 -75.4378 -75.4359 -75.4359 -75.3043 -75.3042 -75.2508
    -8.9500  -5.8006  -2.6185  -2.4599  -2.4232  -2.1118  -2.0879  -2.0616
    -2.0153  -1.9665  -1.8760  -1.7224   0.0222   0.6209   1.7658   3.5502
     4.3456   5.5956

          k =-0.0000 0.3837 0.0924 (  4840 PWs)   bands (ev):

  -121.3425-121.1863 -75.4379 -75.4359 -75.4359 -75.3043 -75.3042 -75.2509
    -8.9492  -5.8028  -2.6178  -2.4604  -2.4258  -2.1077  -2.0875  -2.0640
    -2.0153  -1.9661  -1.8807  -1.7235  -0.0298   0.6728   1.7694   3.7353
     4.3050   5.5771

          k =-0.0000 0.3837 0.1848 (  4849 PWs)   bands (ev):

  -121.3425-121.1863 -75.4376 -75.4359 -75.4359 -75.3043 -75.3043 -75.2506
    -8.9476  -5.8071  -2.6146  -2.4605  -2.4295  -2.1079  -2.0886  -2.0523
    -2.0162  -1.9613  -1.8828  -1.7331  -0.1006   0.7695   1.7769   3.8418
     4.4239   5.3855

          k =-0.0000 0.3837-0.2772 (  4840 PWs)   bands (ev):

  -121.3425-121.1863 -75.4377 -75.4359 -75.4359 -75.3043 -75.3042 -75.2507
    -8.9468  -5.8094  -2.6163  -2.4593  -2.4306  -2.1130  -2.0852  -2.0438
    -2.0147  -1.9581  -1.8817  -1.7478  -0.1245   0.8191   1.7810   3.7457
     4.5384   5.4856

          k = 0.0000-0.5756 0.0000 (  4850 PWs)   bands (ev):

  -121.3425-121.1863 -75.4380 -75.4360 -75.4358 -75.3043 -75.3042 -75.2510
    -8.7988  -5.7754  -2.5846  -2.3896  -2.3856  -2.0986  -2.0763  -2.0608
    -2.0116  -1.9991  -1.8760  -1.7950  -0.5175   0.9997   1.4872   3.5936
     3.7150   5.5295

          k = 0.0000-0.5756 0.0924 (  4844 PWs)   bands (ev):

  -121.3425-121.1863 -75.4378 -75.4359 -75.4359 -75.3043 -75.3042 -75.2508
    -8.7983  -5.7754  -2.5814  -2.3887  -2.3885  -2.1021  -2.0760  -2.0484
    -2.0111  -1.9937  -1.8810  -1.7936  -0.5570   1.0034   1.4914   3.5696
     3.9599   5.5098

          k = 0.0000-0.5756 0.1848 (  4868 PWs)   bands (ev):

  -121.3425-121.1863 -75.4381 -75.4360 -75.4360 -75.3044 -75.3043 -75.2512
    -8.7975  -5.7756  -2.5839  -2.3967  -2.3928  -2.1071  -2.0797  -2.0397
    -2.0127  -1.9836  -1.8891  -1.7927  -0.6359   1.0016   1.4986   3.7567
     4.2438   5.4705

          k = 0.0000-0.5756-0.2772 (  4852 PWs)   bands (ev):

  -121.3425-121.1863 -75.4380 -75.4359 -75.4359 -75.3043 -75.3043 -75.2510
    -8.7970  -5.7757  -2.5832  -2.3988  -2.3894  -2.1084  -2.0754  -2.0336
    -2.0107  -1.9756  -1.8859  -1.7901  -0.6725   0.9983   1.5034   3.9886
     4.2321   5.4518

          k = 0.1662 0.2878-0.0000 (  4853 PWs)   bands (ev):

  -121.3425-121.1863 -75.4380 -75.4359 -75.4359 -75.3043 -75.3043 -75.2510
    -9.0220  -5.8152  -2.6287  -2.5025  -2.4208  -2.1135  -2.0928  -2.0390
    -2.0342  -1.9618  -1.8815  -1.7135   0.4011   0.4928   1.6369   3.7406
     4.5777   5.4090

          k = 0.1662 0.2878 0.0924 (  4854 PWs)   bands (ev):

  -121.3425-121.1863 -75.4380 -75.4359 -75.4359 -75.3043 -75.3043 -75.2510
    -9.0211  -5.8184  -2.6281  -2.5021  -2.4241  -2.1142  -2.0907  -2.0392
    -2.0314  -1.9604  -1.8824  -1.7214   0.3308   0.5931   1.6432   3.7080
     4.6772   5.3882

          k = 0.1662 0.2878 0.1848 (  4849 PWs)   bands (ev):

  -121.3425-121.1863 -75.4378 -75.4359 -75.4359 -75.3043 -75.3043 -75.2509
    -9.0192  -5.8248  -2.6269  -2.5020  -2.4260  -2.1151  -2.0863  -2.0397
    -2.0234  -1.9597  -1.8838  -1.7388   0.2742   0.7086   1.6560   3.6999
     4.7924   5.3406

          k = 0.1662 0.2878-0.2772 (  4864 PWs)   bands (ev):

  -121.3425-121.1863 -75.4381 -75.4360 -75.4359 -75.3043 -75.3043 -75.2512
    -9.0182  -5.8281  -2.6284  -2.5033  -2.4302  -2.1166  -2.0868  -2.0411
    -2.0203  -1.9615  -1.8840  -1.7505   0.2563   0.7536   1.6620   3.7222
     4.7882   5.3113

          k = 0.1662 0.4797-0.0000 (  4849 PWs)   bands (ev):

  -121.3425-121.1863 -75.4381 -75.4360 -75.4359 -75.3044 -75.3042 -75.2512
    -8.8018  -5.7729  -2.5526  -2.4480  -2.3717  -2.1150  -2.0662  -2.0538
    -2.0220  -1.9885  -1.8911  -1.7327  -0.3297   0.9465   0.9929   3.6031
     4.1091   5.1435

          k = 0.1662 0.4797 0.0924 (  4845 PWs)   bands (ev):

  -121.3425-121.1863 -75.4379 -75.4359 -75.4359 -75.3043 -75.3043 -75.2509
    -8.8013  -5.7729  -2.5492  -2.4496  -2.3722  -2.1143  -2.0677  -2.0475
    -2.0182  -1.9869  -1.8934  -1.7296  -0.3708   0.9378   1.0132   3.7519
     4.1841   5.0972

          k = 0.1662 0.4797 0.1848 (  4842 PWs)   bands (ev):

  -121.3425-121.1863 -75.4377 -75.4359 -75.4359 -75.3043 -75.3043 -75.2507
    -8.8004  -5.7732  -2.5490  -2.4525  -2.3732  -2.1148  -2.0700  -2.0371
    -2.0102  -1.9833  -1.8939  -1.7293  -0.4439   0.9437   1.0272   3.9893
     4.4244   5.0404

          k = 0.1662 0.4797-0.2772 (  4840 PWs)   bands (ev):

  -121.3425-121.1863 -75.4379 -75.4359 -75.4359 -75.3043 -75.3043 -75.2510
    -8.8000  -5.7734  -2.5514  -2.4549  -2.3745  -2.1157  -2.0726  -2.0340
    -2.0107  -1.9743  -1.8928  -1.7362  -0.4759   0.9524   1.0266   4.0977
     4.5095   5.1143

          k = 0.3323 0.5756-0.0000 (  4866 PWs)   bands (ev):

  -121.3425-121.1863 -75.4387 -75.4360 -75.4360 -75.3044 -75.3043 -75.2517
    -8.7257  -5.7593  -2.4750  -2.4631  -2.3500  -2.1423  -2.0688  -2.0295
    -2.0248  -2.0022  -1.9116  -1.6852  -0.3319   0.2837   1.1727   3.7290
     4.0826   4.7193

          k = 0.3323 0.5756 0.0924 (  4839 PWs)   bands (ev):

  -121.3425-121.1863 -75.4376 -75.4359 -75.4359 -75.3043 -75.3043 -75.2506
    -8.7253  -5.7581  -2.4710  -2.4560  -2.3497  -2.1406  -2.0684  -2.0244
    -2.0115  -1.9921  -1.9081  -1.6825  -0.3678   0.2909   1.1561   3.8585
     4.2207   4.6628

          k = 0.3323 0.5756 0.1848 (  4830 PWs)   bands (ev):

  -121.3425-121.1863 -75.4377 -75.4359 -75.4359 -75.3043 -75.3042 -75.2507
    -8.7247  -5.7564  -2.4759  -2.4592  -2.3490  -2.1403  -2.0724  -2.0234
    -1.9913  -1.9842  -1.9075  -1.6845  -0.4455   0.3051   1.1217   4.1437
     4.5583   4.5683

          k = 0.3323 0.5756-0.2772 (  4836 PWs)   bands (ev):

  -121.3425-121.1863 -75.4383 -75.4360 -75.4360 -75.3043 -75.3043 -75.2513
    -8.7245  -5.7557  -2.4837  -2.4649  -2.3507  -2.1407  -2.0749  -2.0235
    -1.9958  -1.9756  -1.9128  -1.6864  -0.4851   0.3120   1.1038   4.3074
     4.5099   4.8279

          k = 0.0000-0.1919 0.0924 (  4853 PWs)   bands (ev):

  -121.3425-121.1863 -75.4380 -75.4359 -75.4359 -75.3042 -75.3042 -75.2510
    -9.2203  -5.8730  -2.6544  -2.5929  -2.4075  -2.1111  -2.1019  -2.0306
    -2.0221  -1.9357  -1.8766  -1.7584   0.0989   1.4170   2.3819   3.6344
     4.8750   5.6980

          k = 0.0000-0.1919 0.1848 (  4865 PWs)   bands (ev):

  -121.3425-121.1863 -75.4380 -75.4360 -75.4359 -75.3043 -75.3043 -75.2511
    -9.2177  -5.8850  -2.6560  -2.5947  -2.4080  -2.1142  -2.1040  -2.0276
    -2.0224  -1.9407  -1.8816  -1.7863   0.2788   1.3616   2.3870   3.3441
     5.1423   5.6734

          k = 0.0000-0.3837 0.0924 (  4840 PWs)   bands (ev):

  -121.3425-121.1863 -75.4379 -75.4359 -75.4359 -75.3043 -75.3042 -75.2509
    -8.9492  -5.8029  -2.6173  -2.4604  -2.4270  -2.1148  -2.0884  -2.0523
    -2.0164  -1.9633  -1.8786  -1.7348  -0.0176   0.6906   1.7692   3.4272
     4.5553   5.5801

          k = 0.0000-0.3837 0.1848 (  4849 PWs)   bands (ev):

  -121.3425-121.1863 -75.4376 -75.4359 -75.4359 -75.3043 -75.3043 -75.2506
    -8.9476  -5.8073  -2.6158  -2.4611  -2.4264  -2.1146  -2.0880  -2.0433
    -2.0159  -1.9557  -1.8830  -1.7485  -0.0890   0.7891   1.7766   3.5087
     4.6697   5.5468

          k =-0.1662-0.4797 0.0924 (  4845 PWs)   bands (ev):

  -121.3425-121.1863 -75.4379 -75.4359 -75.4359 -75.3043 -75.3043 -75.2509
    -8.8013  -5.7729  -2.5502  -2.4492  -2.3721  -2.1156  -2.0696  -2.0422
    -2.0217  -1.9810  -1.8926  -1.7374  -0.3642   0.9580   0.9968   3.6120
     4.2943   5.1277

          k =-0.1662-0.4797 0.1848 (  4842 PWs)   bands (ev):

  -121.3425-121.1863 -75.4377 -75.4359 -75.4359 -75.3043 -75.3043 -75.2507
    -8.8004  -5.7732  -2.5496  -2.4516  -2.3730  -2.1160  -2.0712  -2.0335
    -2.0161  -1.9730  -1.8924  -1.7401  -0.4372   0.9578   1.0168   3.8335
     4.5069   5.1217

     highest occupied level (ev):     5.7338

!    total energy              =    -841.37859947 Ry
     estimated scf accuracy    <       0.00000003 Ry

     The total energy is the sum of the following terms:
     one-electron contribution =    -828.89990054 Ry
     hartree contribution      =     415.15536508 Ry
     xc contribution           =     -81.67152289 Ry
     ewald contribution        =    -345.96254113 Ry

     convergence has been achieved in  57 iterations

     Forces acting on atoms (cartesian axes, Ry/au):

     atom    1 type  1   force =     0.00000000   -0.00000000   -0.09896623
     atom    2 type  2   force =     0.00000000   -0.00000000    0.00536680
     atom    3 type  1   force =     0.00000000   -0.00000000    0.00292265
     atom    4 type  2   force =     0.00000000   -0.00000000    0.09067678
     The non-local contrib.  to forces
     atom    1 type  1   force =    -0.00000000    0.00000000   -0.28932690
     atom    2 type  2   force =     0.00000000   -0.00000000   -0.12414947
     atom    3 type  1   force =    -0.00000000    0.00000000   -0.65751124
     atom    4 type  2   force =    -0.00000000   -0.00000000   -0.03693231
     The ionic contribution  to forces
     atom    1 type  1   force =     0.00000000   -0.00000000  -44.31422866
     atom    2 type  2   force =    -0.00000000   -0.00000001   12.19284861
     atom    3 type  1   force =    -0.00000000    0.00000001   19.07267438
     atom    4 type  2   force =    -0.00000000    0.00000000   13.04870567
     The local contribution  to forces
     atom    1 type  1   force =     0.00000000   -0.00000000   44.50424312
     atom    2 type  2   force =     0.00000000   -0.00000000  -12.06310310
     atom    3 type  1   force =     0.00000000    0.00000050  -18.41153469
     atom    4 type  2   force =     0.00000000    0.00000000  -12.92106634
     The core correction contribution to forces
     atom    1 type  1   force =     0.00000000    0.00000000    0.00000000
     atom    2 type  2   force =     0.00000000    0.00000000    0.00000000
     atom    3 type  1   force =     0.00000000    0.00000000    0.00000000
     atom    4 type  2   force =     0.00000000    0.00000000    0.00000000
     The Hubbard contrib.    to forces
     atom    1 type  1   force =     0.00000000    0.00000000    0.00000000
     atom    2 type  2   force =     0.00000000    0.00000000    0.00000000
     atom    3 type  1   force =     0.00000000    0.00000000    0.00000000
     atom    4 type  2   force =     0.00000000    0.00000000    0.00000000
     The SCF correction term to forces
     atom    1 type  1   force =    -0.00000000   -0.00000000    0.00035751
     atom    2 type  2   force =    -0.00000000    0.00000000   -0.00021794
     atom    3 type  1   force =    -0.00000000   -0.00000000   -0.00069450
     atom    4 type  2   force =    -0.00000000   -0.00000000   -0.00001893

     Total force =     0.134365     Total SCF correction =     0.000811


     Computing stress (Cartesian axis) and pressure

          total   stress  (Ry/bohr**3)                   (kbar)     P=      -99.66
  -0.00032007   0.00000000   0.00000000          -47.08        0.00        0.00
   0.00000000  -0.00032007  -0.00000000            0.00      -47.08       -0.00
   0.00000000  -0.00000000  -0.00139231            0.00       -0.00     -204.82

     Energy error            =      1.2E+00 Ry
     Gradient error          =      9.9E-02 Ry/Bohr
     Cell gradient error     =      2.0E+02 kbar

     number of scf cycles    =   2
     number of bfgs steps    =   1

     enthalpy           old  =    -840.1907814402 Ry
     enthalpy           new  =    -841.3785994743 Ry

     CASE: enthalpy          _new < enthalpy          _old

     new trust radius        =       0.1620721868 bohr
     new conv_thr            =       0.0000001000 Ry

     new unit-cell volume =    651.44071 a.u.^3 (    96.53355 Ang^3 )
     density =      3.35226 g/cm^3

CELL_PARAMETERS (alat=  7.57969094)
   0.994180460   0.000000000   0.000000000
  -0.497090230   0.860985534  -0.000000000
  -0.000000000  -0.000000000   1.747669580

ATOMIC_POSITIONS (alat)
Zn            0.0000000000       -0.0000000000       -0.0789636200
S            -0.0000000000       -0.0000000000        0.4552778251
Zn           -0.0000000000        0.5739903558        0.4729966358
S            -0.0000000000        0.5739903558        1.0114069698



     Writing config-only to output data dir /home/paolo/project_labqsm/ZnS_wurtzite/SCRATCH/zns_w.save/
     NEW-OLD atomic charge density approx. for the potential
     extrapolated charge   49.38411, renormalised to   52.00000

     total cpu time spent up to now is      683.3 secs

     Self-consistent Calculation

     iteration #  1     ecut=    60.00 Ry     beta= 0.70
     Davidson diagonalization with overlap
     c_bands:  1 eigenvalues not converged
     c_bands:  1 eigenvalues not converged
     ethr =  1.00E-06,  avg # of iterations = 18.3

     total cpu time spent up to now is      709.7 secs

     total energy              =    -832.47315137 Ry
     estimated scf accuracy    <       8.61910551 Ry

     iteration #  2     ecut=    60.00 Ry     beta= 0.70
     Davidson diagonalization with overlap
     ethr =  1.00E-02,  avg # of iterations =  9.9

     total cpu time spent up to now is      730.7 secs

     total energy              =    -815.14031298 Ry
     estimated scf accuracy    <     314.03674341 Ry

     iteration #  3     ecut=    60.00 Ry     beta= 0.70
     Davidson diagonalization with overlap
     ethr =  1.00E-02,  avg # of iterations = 11.9

     total cpu time spent up to now is      752.7 secs

     total energy              =    -841.45871157 Ry
     estimated scf accuracy    <       2.68519053 Ry

     iteration #  4     ecut=    60.00 Ry     beta= 0.70
     Davidson diagonalization with overlap
     ethr =  5.16E-03,  avg # of iterations =  2.1

     total cpu time spent up to now is      759.4 secs

     total energy              =    -841.50028773 Ry
     estimated scf accuracy    <       1.22796529 Ry

     iteration #  5     ecut=    60.00 Ry     beta= 0.70
     Davidson diagonalization with overlap
     ethr =  2.36E-03,  avg # of iterations =  1.6

     total cpu time spent up to now is      765.5 secs

     total energy              =    -841.44076530 Ry
     estimated scf accuracy    <       0.85097295 Ry

     iteration #  6     ecut=    60.00 Ry     beta= 0.70
     Davidson diagonalization with overlap
     ethr =  1.64E-03,  avg # of iterations =  1.8

     total cpu time spent up to now is      771.7 secs

     total energy              =    -841.37725953 Ry
     estimated scf accuracy    <       0.53256911 Ry

     iteration #  7     ecut=    60.00 Ry     beta= 0.70
     Davidson diagonalization with overlap
     ethr =  1.02E-03,  avg # of iterations =  2.4

     total cpu time spent up to now is      778.5 secs

     total energy              =    -841.40107716 Ry
     estimated scf accuracy    <       0.22488774 Ry

     iteration #  8     ecut=    60.00 Ry     beta= 0.70
     Davidson diagonalization with overlap
     ethr =  4.32E-04,  avg # of iterations =  2.6

     total cpu time spent up to now is      785.6 secs

     total energy              =    -841.44187907 Ry
     estimated scf accuracy    <       0.10559998 Ry

     iteration #  9     ecut=    60.00 Ry     beta= 0.70
     Davidson diagonalization with overlap
     ethr =  2.03E-04,  avg # of iterations =  1.0

     total cpu time spent up to now is      791.7 secs

     total energy              =    -841.44440263 Ry
     estimated scf accuracy    <       0.10566189 Ry

     iteration # 10     ecut=    60.00 Ry     beta= 0.70
     Davidson diagonalization with overlap
     ethr =  2.03E-04,  avg # of iterations =  1.7

     total cpu time spent up to now is      797.9 secs

     total energy              =    -841.40783936 Ry
     estimated scf accuracy    <       0.12046248 Ry

     iteration # 11     ecut=    60.00 Ry     beta= 0.70
     Davidson diagonalization with overlap
     ethr =  2.03E-04,  avg # of iterations =  4.6

     total cpu time spent up to now is      805.1 secs

     total energy              =    -841.42230326 Ry
     estimated scf accuracy    <       0.00642408 Ry

     iteration # 12     ecut=    60.00 Ry     beta= 0.70
     Davidson diagonalization with overlap
     ethr =  1.24E-05,  avg # of iterations =  5.4

     total cpu time spent up to now is      813.4 secs

     total energy              =    -841.42479047 Ry
     estimated scf accuracy    <       0.00559310 Ry

     iteration # 13     ecut=    60.00 Ry     beta= 0.70
     Davidson diagonalization with overlap
     ethr =  1.08E-05,  avg # of iterations =  2.5

     total cpu time spent up to now is      820.0 secs

     total energy              =    -841.42384929 Ry
     estimated scf accuracy    <       0.00201114 Ry

     iteration # 14     ecut=    60.00 Ry     beta= 0.70
     Davidson diagonalization with overlap
     ethr =  3.87E-06,  avg # of iterations =  7.6

     total cpu time spent up to now is      829.5 secs

     total energy              =    -841.42527997 Ry
     estimated scf accuracy    <       0.02187495 Ry

     iteration # 15     ecut=    60.00 Ry     beta= 0.70
     Davidson diagonalization with overlap
     ethr =  3.87E-06,  avg # of iterations =  5.3

     total cpu time spent up to now is      837.0 secs

     total energy              =    -841.42530756 Ry
     estimated scf accuracy    <       0.00584145 Ry

     iteration # 16     ecut=    60.00 Ry     beta= 0.70
     Davidson diagonalization with overlap
     ethr =  3.87E-06,  avg # of iterations =  2.7

     total cpu time spent up to now is      843.7 secs

     total energy              =    -841.42481222 Ry
     estimated scf accuracy    <       0.00308364 Ry

     iteration # 17     ecut=    60.00 Ry     beta= 0.70
     Davidson diagonalization with overlap
     ethr =  3.87E-06,  avg # of iterations =  5.0

     total cpu time spent up to now is      851.0 secs

     total energy              =    -841.42513671 Ry
     estimated scf accuracy    <       0.00004730 Ry

     iteration # 18     ecut=    60.00 Ry     beta= 0.70
     Davidson diagonalization with overlap
     ethr =  9.10E-08,  avg # of iterations =  6.0

     total cpu time spent up to now is      859.0 secs

     total energy              =    -841.42560830 Ry
     estimated scf accuracy    <       0.00065295 Ry

     iteration # 19     ecut=    60.00 Ry     beta= 0.70
     Davidson diagonalization with overlap
     ethr =  9.10E-08,  avg # of iterations =  3.4

     total cpu time spent up to now is      865.6 secs

     total energy              =    -841.42556972 Ry
     estimated scf accuracy    <       0.00047301 Ry

     iteration # 20     ecut=    60.00 Ry     beta= 0.70
     Davidson diagonalization with overlap
     ethr =  9.10E-08,  avg # of iterations =  5.2

     total cpu time spent up to now is      872.8 secs

     total energy              =    -841.42553340 Ry
     estimated scf accuracy    <       0.00019960 Ry

     iteration # 21     ecut=    60.00 Ry     beta= 0.70
     Davidson diagonalization with overlap
     ethr =  9.10E-08,  avg # of iterations =  5.8

     total cpu time spent up to now is      880.7 secs

     total energy              =    -841.42554975 Ry
     estimated scf accuracy    <       0.00000505 Ry

     iteration # 22     ecut=    60.00 Ry     beta= 0.70
     Davidson diagonalization with overlap
     ethr =  9.72E-09,  avg # of iterations =  4.8

     total cpu time spent up to now is      888.0 secs

     total energy              =    -841.42555027 Ry
     estimated scf accuracy    <       0.00000014 Ry

     iteration # 23     ecut=    60.00 Ry     beta= 0.70
     Davidson diagonalization with overlap
     ethr =  2.73E-10,  avg # of iterations =  6.9

     total cpu time spent up to now is      897.6 secs

     total energy              =    -841.42555035 Ry
     estimated scf accuracy    <       0.00000041 Ry

     iteration # 24     ecut=    60.00 Ry     beta= 0.70
     Davidson diagonalization with overlap
     ethr =  2.73E-10,  avg # of iterations =  4.1

     total cpu time spent up to now is      904.6 secs

     End of self-consistent calculation

          k = 0.0000 0.0000 0.0000 (  4831 PWs)   bands (ev):

  -120.7132-120.6281 -74.8488 -74.8361 -74.8361 -74.7779 -74.7779 -74.7389
    -8.9486  -5.4104  -2.2027  -2.2027  -1.8824  -1.5963  -1.5963  -1.4811
    -1.4811  -1.3789  -1.3789  -1.3292   0.1507   3.2533   3.2533   4.1308
     5.1052   6.3098

          k =-0.0000 0.0000 0.0954 (  4861 PWs)   bands (ev):

  -120.7132-120.6281 -74.8491 -74.8361 -74.8361 -74.7779 -74.7779 -74.7392
    -8.9465  -5.4218  -2.2035  -2.2035  -1.8907  -1.5964  -1.5964  -1.4807
    -1.4807  -1.3820  -1.3820  -1.3678   0.2850   3.2562   3.2562   3.7380
     5.4610   6.3016

          k =-0.0000 0.0000 0.1907 (  4878 PWs)   bands (ev):

  -120.7132-120.6281 -74.8490 -74.8362 -74.8362 -74.7780 -74.7780 -74.7391
    -8.9420  -5.4438  -2.2045  -2.2045  -1.8931  -1.5981  -1.5981  -1.4813
    -1.4813  -1.4098  -1.3831  -1.3831   0.5843   3.1684   3.2626   3.2626
     5.9594   6.2855

          k = 0.0000-0.0000-0.2861 (  4902 PWs)   bands (ev):

  -120.7132-120.6281 -74.8489 -74.8362 -74.8362 -74.7780 -74.7780 -74.7390
    -8.9398  -5.4547  -2.2056  -2.2056  -1.8912  -1.6001  -1.6001  -1.4822
    -1.4822  -1.4289  -1.3841  -1.3841   0.7618   2.8984   3.2654   3.2654
     6.1943   6.2772

          k =-0.0000 0.1936 0.0000 (  4848 PWs)   bands (ev):

  -120.7132-120.6281 -74.8489 -74.8361 -74.8361 -74.7780 -74.7779 -74.7390
    -8.8176  -5.3692  -2.2083  -2.1364  -1.9059  -1.6007  -1.5974  -1.4974
    -1.4754  -1.4406  -1.3769  -1.2597   0.4190   1.9276   2.8776   4.4066
     5.1753   6.2801

          k =-0.0000 0.1936 0.0954 (  4853 PWs)   bands (ev):

  -120.7132-120.6281 -74.8490 -74.8361 -74.8361 -74.7779 -74.7779 -74.7391
    -8.8157  -5.3779  -2.2082  -2.1366  -1.9105  -1.5992  -1.5968  -1.5016
    -1.4757  -1.4371  -1.3797  -1.2829   0.5243   1.8979   2.8821   4.2388
     5.2972   6.2636

          k =-0.0000 0.1936 0.1907 (  4865 PWs)   bands (ev):

  -120.7132-120.6281 -74.8490 -74.8362 -74.8362 -74.7780 -74.7780 -74.7391
    -8.8118  -5.3950  -2.2087  -2.1375  -1.9167  -1.5990  -1.5982  -1.5010
    -1.4766  -1.4389  -1.3814  -1.3209   0.7615   1.8276   2.8903   3.8829
     5.5754   6.2358

          k =-0.0000 0.1936-0.2861 (  4854 PWs)   bands (ev):

  -120.7132-120.6281 -74.8489 -74.8362 -74.8361 -74.7780 -74.7780 -74.7391
    -8.8099  -5.4035  -2.2080  -2.1375  -1.9182  -1.5977  -1.5974  -1.4917
    -1.4753  -1.4462  -1.3822  -1.3381   0.9035   1.7794   2.8945   3.6994
     5.7109   6.2244

          k =-0.0000 0.3872 0.0000 (  4840 PWs)   bands (ev):

  -120.7132-120.6281 -74.8489 -74.8362 -74.8361 -74.7780 -74.7779 -74.7390
    -8.5281  -5.2977  -2.1717  -1.9894  -1.9402  -1.6039  -1.6000  -1.5365
    -1.4705  -1.4590  -1.3763  -1.2346   0.4984   1.0706   2.2342   3.9520
     4.8353   6.1605

          k =-0.0000 0.3872 0.0954 (  4840 PWs)   bands (ev):

  -120.7132-120.6281 -74.8489 -74.8362 -74.8361 -74.7780 -74.7780 -74.7391
    -8.5269  -5.3006  -2.1711  -1.9898  -1.9457  -1.5993  -1.5939  -1.5450
    -1.4705  -1.4588  -1.3793  -1.2331   0.4259   1.1445   2.2395   4.1375
     4.8161   6.1352

          k =-0.0000 0.3872 0.1907 (  4849 PWs)   bands (ev):

  -120.7132-120.6281 -74.8489 -74.8362 -74.8362 -74.7780 -74.7780 -74.7390
    -8.5245  -5.3067  -2.1691  -1.9902  -1.9543  -1.5978  -1.5845  -1.5423
    -1.4641  -1.4599  -1.3823  -1.2507   0.3347   1.2706   2.2501   4.2538
     4.9652   6.0183

          k =-0.0000 0.3872-0.2861 (  4840 PWs)   bands (ev):

  -120.7132-120.6281 -74.8489 -74.8362 -74.8361 -74.7780 -74.7779 -74.7390
    -8.5233  -5.3100  -2.1690  -1.9898  -1.9573  -1.5942  -1.5893  -1.5309
    -1.4600  -1.4546  -1.3829  -1.2752   0.3066   1.3325   2.2556   4.1758
     5.0618   6.1560

          k = 0.0000-0.5807-0.0000 (  4850 PWs)   bands (ev):

  -120.7132-120.6281 -74.8490 -74.8362 -74.8361 -74.7780 -74.7779 -74.7391
    -8.3660  -5.2709  -2.1275  -1.9087  -1.9051  -1.5965  -1.5945  -1.5517
    -1.5183  -1.4514  -1.3763  -1.2939  -0.0426   1.4965   1.9421   3.9808
     4.1128   6.0892

          k = 0.0000-0.5807 0.0954 (  4844 PWs)   bands (ev):

  -120.7132-120.6281 -74.8489 -74.8362 -74.8361 -74.7780 -74.7779 -74.7390
    -8.3653  -5.2709  -2.1264  -1.9109  -1.9084  -1.5951  -1.5852  -1.5539
    -1.5096  -1.4519  -1.3796  -1.2921  -0.0985   1.5015   1.9479   3.9482
     4.4095   6.0619

          k = 0.0000-0.5807 0.1907 (  4868 PWs)   bands (ev):

  -120.7132-120.6281 -74.8490 -74.8362 -74.8362 -74.7780 -74.7780 -74.7391
    -8.3639  -5.2708  -2.1282  -1.9234  -1.9103  -1.5951  -1.5719  -1.5583
    -1.4940  -1.4544  -1.3848  -1.2879  -0.2065   1.4973   1.9589   4.1756
     4.7532   6.0083

          k = 0.0000-0.5807-0.2861 (  4852 PWs)   bands (ev):

  -120.7132-120.6281 -74.8490 -74.8362 -74.8362 -74.7780 -74.7780 -74.7391
    -8.3632  -5.2708  -2.1283  -1.9283  -1.9089  -1.5914  -1.5669  -1.5571
    -1.4852  -1.4538  -1.3844  -1.2838  -0.2579   1.4909   1.9651   4.4645
     4.7274   5.9825

          k = 0.1676 0.2904 0.0000 (  4853 PWs)   bands (ev):

  -120.7132-120.6281 -74.8490 -74.8362 -74.8362 -74.7780 -74.7780 -74.7391
    -8.6051  -5.3132  -2.1842  -2.0328  -1.9348  -1.6120  -1.5944  -1.5112
    -1.4874  -1.4540  -1.3811  -1.2244   0.8720   0.9420   2.0974   4.1571
     5.1163   5.9724

          k = 0.1676 0.2904 0.0954 (  4854 PWs)   bands (ev):

  -120.7132-120.6281 -74.8490 -74.8362 -74.8362 -74.7780 -74.7780 -74.7391
    -8.6037  -5.3178  -2.1836  -2.0331  -1.9393  -1.6105  -1.5919  -1.5094
    -1.4864  -1.4534  -1.3823  -1.2377   0.7810   1.0752   2.1060   4.1187
     5.2330   5.9471

          k = 0.1676 0.2904 0.1907 (  4849 PWs)   bands (ev):

  -120.7132-120.6281 -74.8489 -74.8362 -74.8362 -74.7780 -74.7780 -74.7391
    -8.6009  -5.3269  -2.1825  -2.0337  -1.9457  -1.6089  -1.5841  -1.5063
    -1.4837  -1.4528  -1.3840  -1.2661   0.7197   1.2170   2.1234   4.1146
     5.3580   5.8919

          k = 0.1676 0.2904-0.2861 (  4864 PWs)   bands (ev):

  -120.7132-120.6281 -74.8490 -74.8362 -74.8362 -74.7780 -74.7780 -74.7391
    -8.5995  -5.3315  -2.1828  -2.0347  -1.9506  -1.6089  -1.5820  -1.5049
    -1.4821  -1.4532  -1.3845  -1.2818   0.7019   1.2721   2.1321   4.1488
     5.3390   5.8545

          k = 0.1676 0.4839 0.0000 (  4849 PWs)   bands (ev):

  -120.7132-120.6281 -74.8490 -74.8362 -74.8361 -74.7780 -74.7780 -74.7391
    -8.3693  -5.2680  -2.0977  -1.9707  -1.8851  -1.6203  -1.5841  -1.5300
    -1.4926  -1.4649  -1.3928  -1.2349   0.1453   1.3878   1.4787   3.9821
     4.5345   5.6794

          k = 0.1676 0.4839 0.0954 (  4845 PWs)   bands (ev):

  -120.7132-120.6281 -74.8489 -74.8362 -74.8362 -74.7780 -74.7780 -74.7391
    -8.3686  -5.2680  -2.0964  -1.9749  -1.8865  -1.6193  -1.5735  -1.5314
    -1.4943  -1.4627  -1.3948  -1.2299   0.0876   1.3832   1.4991   4.1452
     4.6315   5.6263

          k = 0.1676 0.4839 0.1907 (  4842 PWs)   bands (ev):

  -120.7132-120.6281 -74.8489 -74.8362 -74.8362 -74.7780 -74.7780 -74.7390
    -8.3672  -5.2681  -2.0970  -1.9825  -1.8884  -1.6166  -1.5601  -1.5300
    -1.4887  -1.4601  -1.3968  -1.2315  -0.0121   1.3929   1.5144   4.4217
     4.9164   5.5658

          k = 0.1676 0.4839-0.2861 (  4840 PWs)   bands (ev):

  -120.7132-120.6281 -74.8490 -74.8362 -74.8362 -74.7780 -74.7780 -74.7391
    -8.3665  -5.2683  -2.0986  -1.9864  -1.8893  -1.6157  -1.5592  -1.5269
    -1.4800  -1.4583  -1.3971  -1.2408  -0.0547   1.4026   1.5146   4.5607
     5.0155   5.6368

          k = 0.3353 0.5807 0.0000 (  4866 PWs)   bands (ev):

  -120.7132-120.6281 -74.8492 -74.8362 -74.8362 -74.7780 -74.7780 -74.7393
    -8.2876  -5.2534  -2.0048  -1.9911  -1.8567  -1.6601  -1.5764  -1.5231
    -1.4780  -1.4744  -1.4153  -1.1799   0.1519   0.6837   1.6911   4.1198
     4.4552   5.2259

          k = 0.3353 0.5807 0.0954 (  4839 PWs)   bands (ev):

  -120.7132-120.6281 -74.8488 -74.8362 -74.8362 -74.7780 -74.7780 -74.7390
    -8.2871  -5.2518  -2.0023  -1.9939  -1.8561  -1.6587  -1.5657  -1.5166
    -1.4743  -1.4716  -1.4163  -1.1789   0.0984   0.6938   1.6654   4.2795
     4.6165   5.1517

          k = 0.3353 0.5807 0.1907 (  4830 PWs)   bands (ev):

  -120.7132-120.6281 -74.8489 -74.8362 -74.8362 -74.7780 -74.7780 -74.7390
    -8.2862  -5.2490  -2.0053  -2.0050  -1.8554  -1.6573  -1.5522  -1.5122
    -1.4740  -1.4556  -1.4203  -1.1809  -0.0089   0.7138   1.6161   4.6371
     5.0168   5.0174

          k = 0.3353 0.5807-0.2861 (  4836 PWs)   bands (ev):

  -120.7132-120.6281 -74.8491 -74.8362 -74.8362 -74.7780 -74.7780 -74.7392
    -8.2858  -5.2477  -2.0121  -2.0096  -1.8556  -1.6569  -1.5474  -1.5135
    -1.4746  -1.4463  -1.4251  -1.1823  -0.0623   0.7238   1.5926   4.8477
     4.9560   5.3108

          k = 0.0000-0.1936 0.0954 (  4853 PWs)   bands (ev):

  -120.7132-120.6281 -74.8490 -74.8361 -74.8361 -74.7779 -74.7779 -74.7391
    -8.8157  -5.3779  -2.2076  -2.1369  -1.9112  -1.6010  -1.5978  -1.4911
    -1.4756  -1.4467  -1.3785  -1.2828   0.5261   1.9142   2.8817   4.0971
     5.4907   6.2686

          k = 0.0000-0.1936 0.1907 (  4865 PWs)   bands (ev):

  -120.7132-120.6281 -74.8490 -74.8362 -74.8362 -74.7780 -74.7780 -74.7391
    -8.8118  -5.3951  -2.2082  -2.1383  -1.9161  -1.6010  -1.5980  -1.4860
    -1.4754  -1.4530  -1.3818  -1.3217   0.7627   1.8467   2.8896   3.7873
     5.7161   6.2406

          k = 0.0000-0.3872 0.0954 (  4840 PWs)   bands (ev):

  -120.7132-120.6281 -74.8489 -74.8362 -74.8361 -74.7780 -74.7780 -74.7391
    -8.5269  -5.3009  -2.1708  -1.9897  -1.9451  -1.6045  -1.5995  -1.5285
    -1.4628  -1.4602  -1.3779  -1.2551   0.4424   1.1682   2.2393   3.8138
     5.0792   6.1388

          k = 0.0000-0.3872 0.1907 (  4849 PWs)   bands (ev):

  -120.7132-120.6281 -74.8489 -74.8362 -74.8362 -74.7780 -74.7780 -74.7390
    -8.5245  -5.3070  -2.1690  -1.9905  -1.9519  -1.5971  -1.5968  -1.5255
    -1.4608  -1.4516  -1.3820  -1.2776   0.3504   1.2963   2.2498   3.9068
     5.2152   6.0928

          k =-0.1676-0.4839 0.0954 (  4845 PWs)   bands (ev):

  -120.7132-120.6281 -74.8489 -74.8362 -74.8362 -74.7780 -74.7780 -74.7391
    -8.3686  -5.2681  -2.0973  -1.9739  -1.8862  -1.6188  -1.5795  -1.5274
    -1.4803  -1.4680  -1.3939  -1.2429   0.0966   1.3958   1.4922   3.9903
     4.7623   5.6496

          k =-0.1676-0.4839 0.1907 (  4842 PWs)   bands (ev):

  -120.7132-120.6281 -74.8489 -74.8362 -74.8362 -74.7780 -74.7780 -74.7390
    -8.3672  -5.2682  -2.0978  -1.9814  -1.8879  -1.6165  -1.5677  -1.5254
    -1.4737  -1.4640  -1.3956  -1.2467  -0.0029   1.4024   1.5100   4.2496
     5.0247   5.6317

     highest occupied level (ev):     6.3098

[...]

     Dense  grid:    34145 G-vectors     FFT dimensions: (  36,  36,  60)

     Estimated max dynamical RAM per process >      95.76 MB

     Initial potential from superposition of free atoms

     starting charge      51.9339, renormalised to      52.0000
     Starting wfcs are random

     total cpu time spent up to now is     3813.3 secs

     Self-consistent Calculation

     iteration #  1     ecut=    60.00 Ry     beta= 0.70
     Davidson diagonalization with overlap
     c_bands:  1 eigenvalues not converged
     ethr =  1.00E-06,  avg # of iterations = 34.0

     total cpu time spent up to now is     3872.1 secs

     total energy              =    -841.70209666 Ry
     estimated scf accuracy    <       0.23515022 Ry

     iteration #  2     ecut=    60.00 Ry     beta= 0.70
     Davidson diagonalization with overlap
     ethr =  4.52E-04,  avg # of iterations =  2.0

     total cpu time spent up to now is     3877.9 secs

     total energy              =    -841.77887468 Ry
     estimated scf accuracy    <       0.11300599 Ry

     iteration #  3     ecut=    60.00 Ry     beta= 0.70
     Davidson diagonalization with overlap
     ethr =  2.17E-04,  avg # of iterations =  2.0

     total cpu time spent up to now is     3883.8 secs

     total energy              =    -841.79901046 Ry
     estimated scf accuracy    <       0.00126119 Ry

     iteration #  4     ecut=    60.00 Ry     beta= 0.70
     Davidson diagonalization with overlap
     ethr =  2.43E-06,  avg # of iterations =  3.1

     total cpu time spent up to now is     3890.6 secs

     total energy              =    -841.79938253 Ry
     estimated scf accuracy    <       0.00036258 Ry

     iteration #  5     ecut=    60.00 Ry     beta= 0.70
     Davidson diagonalization with overlap
     ethr =  6.97E-07,  avg # of iterations =  2.0

     total cpu time spent up to now is     3896.4 secs

     total energy              =    -841.79945373 Ry
     estimated scf accuracy    <       0.00000191 Ry

     iteration #  6     ecut=    60.00 Ry     beta= 0.70
     Davidson diagonalization with overlap
     ethr =  3.68E-09,  avg # of iterations =  4.2

     total cpu time spent up to now is     3903.6 secs

     total energy              =    -841.79945480 Ry
     estimated scf accuracy    <       0.00000082 Ry

     iteration #  7     ecut=    60.00 Ry     beta= 0.70
     Davidson diagonalization with overlap
     ethr =  1.57E-09,  avg # of iterations =  2.1

     total cpu time spent up to now is     3909.3 secs

     total energy              =    -841.79945493 Ry
     estimated scf accuracy    <       0.00000015 Ry

     iteration #  8     ecut=    60.00 Ry     beta= 0.70
     Davidson diagonalization with overlap
     ethr =  2.90E-10,  avg # of iterations =  2.0

     total cpu time spent up to now is     3914.6 secs

     total energy              =    -841.79945489 Ry
     estimated scf accuracy    <       0.00000008 Ry

     iteration #  9     ecut=    60.00 Ry     beta= 0.70
     Davidson diagonalization with overlap
     ethr =  1.62E-10,  avg # of iterations =  2.1

     total cpu time spent up to now is     3920.5 secs

     total energy              =    -841.79945492 Ry
     estimated scf accuracy    <       0.00000002 Ry

     iteration # 10     ecut=    60.00 Ry     beta= 0.70
     Davidson diagonalization with overlap
     ethr =  3.01E-11,  avg # of iterations =  2.0

     total cpu time spent up to now is     3925.6 secs

     total energy              =    -841.79945492 Ry
     estimated scf accuracy    <          1.7E-09 Ry

     iteration # 11     ecut=    60.00 Ry     beta= 0.70
     Davidson diagonalization with overlap
     ethr =  3.20E-12,  avg # of iterations =  2.1

     total cpu time spent up to now is     3931.5 secs

     End of self-consistent calculation

          k = 0.0000 0.0000 0.0000 (  4247 PWs)   bands (ev):

  -117.6863-117.6858 -71.8415 -71.8415 -71.8410 -71.8410 -71.8404 -71.8400
    -5.7998  -4.9083   0.9463   0.9569   0.9569   1.0350   1.0350   1.3730
     1.3730   1.4452   1.4452   1.5994   2.0458   6.3576   6.3576   7.1399
     7.2134   7.2134

          k =-0.0000-0.0000 0.1061 (  4259 PWs)   bands (ev):

  -117.6863-117.6858 -71.8415 -71.8415 -71.8410 -71.8410 -71.8404 -71.8400
    -5.7484  -4.9785   0.9428   0.9602   0.9602   1.0280   1.0280   1.3298
     1.3788   1.3788   1.4418   1.4418   2.5351   6.4105   6.4105   6.5651
     7.1506   7.1506

          k =-0.0000-0.0000 0.2121 (  4242 PWs)   bands (ev):

  -117.6863-117.6858 -71.8415 -71.8415 -71.8410 -71.8410 -71.8404 -71.8400
    -5.6031  -5.1610   0.9452   0.9714   0.9714   1.0103   1.0103   1.0918
     1.3948   1.3948   1.4314   1.4314   3.3874   5.5091   6.5580   6.5580
     6.9844   6.9844

          k = 0.0000 0.0000-0.3182 (  4242 PWs)   bands (ev):

  -117.6863-117.6858 -71.8415 -71.8415 -71.8410 -71.8410 -71.8404 -71.8400
    -5.3918  -5.3906   0.9790   0.9795   0.9888   0.9888   0.9897   0.9897
     1.4141   1.4141   1.4145   1.4145   4.4066   4.4070   6.7662   6.7662
     6.7670   6.7670

          k = 0.0000 0.2008-0.0000 (  4261 PWs)   bands (ev):

  -117.6863-117.6858 -71.8415 -71.8415 -71.8410 -71.8410 -71.8404 -71.8400
    -5.6250  -4.8142   0.9478   0.9808   0.9894   1.0596   1.0840   1.3519
     1.3737   1.3839   1.4521   1.6468   2.2926   5.1779   5.9129   5.9801
     6.9050   6.9978

          k = 0.0000 0.2008 0.1061 (  4245 PWs)   bands (ev):

  -117.6863-117.6858 -71.8415 -71.8415 -71.8410 -71.8410 -71.8404 -71.8400
    -5.5771  -4.8763   0.9420   0.9851   0.9946   1.0515   1.0763   1.2961
     1.3652   1.3801   1.4482   1.5115   2.6969   5.2515   5.6761   6.0412
     6.7699   6.9205

          k = 0.0000 0.2008 0.2121 (  4258 PWs)   bands (ev):

  -117.6863-117.6858 -71.8415 -71.8415 -71.8410 -71.8410 -71.8404 -71.8400
    -5.4425  -5.0393   0.9371   0.9905   1.0086   1.0316   1.0556   1.1191
     1.3876   1.3952   1.4347   1.4509   3.4460   5.0375   5.5382   6.2119
     6.3870   6.7171

          k = 0.0000 0.2008-0.3182 (  4258 PWs)   bands (ev):

  -117.6863-117.6858 -71.8415 -71.8415 -71.8410 -71.8410 -71.8404 -71.8400
    -5.2484  -5.2473   0.9584   0.9588   1.0303   1.0311   1.0405   1.0409
     1.4154   1.4158   1.4178   1.4182   4.2746   4.2749   5.9177   5.9186
     6.4561   6.4571

          k = 0.0000 0.4016-0.0000 (  4266 PWs)   bands (ev):

  -117.6863-117.6858 -71.8416 -71.8415 -71.8411 -71.8410 -71.8404 -71.8400
    -5.2069  -4.6465   0.9638   1.0400   1.0426   1.1810   1.1875   1.2990
     1.3718   1.4024   1.4673   1.7260   2.6445   3.7717   4.2919   5.3513
     6.2051   6.5705

          k = 0.0000 0.4016 0.1061 (  4265 PWs)   bands (ev):

  -117.6863-117.6858 -71.8416 -71.8415 -71.8411 -71.8410 -71.8404 -71.8400
    -5.1710  -4.6854   0.9570   1.0342   1.0491   1.1757   1.1768   1.2673
     1.3777   1.4058   1.4615   1.6410   2.7525   3.8611   4.2918   5.4234
     6.2453   6.4748

          k = 0.0000 0.4016 0.2121 (  4272 PWs)   bands (ev):

  -117.6863-117.6858 -71.8416 -71.8415 -71.8411 -71.8410 -71.8404 -71.8400
    -5.0715  -4.7909   0.9479   1.0049   1.0747   1.1486   1.1638   1.1924
     1.4090   1.4156   1.4470   1.5303   2.9802   3.6240   4.8150   5.6252
     6.1010   6.2273

          k = 0.0000 0.4016-0.3182 (  4260 PWs)   bands (ev):

  -117.6863-117.6858 -71.8416 -71.8415 -71.8411 -71.8410 -71.8404 -71.8400
    -4.9332  -4.9322   0.9626   0.9630   1.1108   1.1115   1.1597   1.1602
     1.4303   1.4308   1.4596   1.4597   3.2777   3.2786   5.5510   5.5516
     5.9147   5.9159

          k =-0.0000-0.6025 0.0000 (  4272 PWs)   bands (ev):

  -117.6863-117.6858 -71.8416 -71.8415 -71.8411 -71.8410 -71.8404 -71.8400
    -4.9198  -4.6119   0.9749   1.0558   1.1813   1.1947   1.2398   1.3034
     1.4336   1.4787   1.5710   1.5713   2.5007   3.1978   4.0681   5.0710
     5.6070   6.3660

          k =-0.0000-0.6025 0.1061 (  4256 PWs)   bands (ev):

  -117.6863-117.6858 -71.8416 -71.8415 -71.8411 -71.8410 -71.8404 -71.8400
    -4.8974  -4.6301   0.9676   1.0679   1.1247   1.2022   1.2276   1.3134
     1.4351   1.4723   1.5762   1.5937   2.4074   3.0444   4.3731   5.1478
     5.7583   6.2642

          k =-0.0000-0.6025 0.2121 (  4264 PWs)   bands (ev):

  -117.6863-117.6858 -71.8416 -71.8415 -71.8411 -71.8410 -71.8404 -71.8400
    -4.8370  -4.6820   0.9571   1.0331   1.1002   1.1934   1.2246   1.2976
     1.4395   1.4594   1.5900   1.6182   2.3455   2.7383   5.0231   5.3624
     5.9125   6.0010

          k =-0.0000-0.6025-0.3182 (  4280 PWs)   bands (ev):

  -117.6863-117.6858 -71.8416 -71.8415 -71.8411 -71.8410 -71.8404 -71.8400
    -4.7579  -4.7569   0.9719   0.9724   1.1455   1.1461   1.2600   1.2603
     1.4467   1.4472   1.6091   1.6095   2.4710   2.4721   5.6478   5.6482
     5.6692   5.6705

          k = 0.1739 0.3012-0.0000 (  4263 PWs)   bands (ev):

  -117.6863-117.6858 -71.8415 -71.8415 -71.8411 -71.8410 -71.8404 -71.8400
    -5.3251  -4.6828   0.9927   1.0035   1.0341   1.1096   1.1713   1.3341
     1.3596   1.3757   1.4638   1.7018   2.6229   4.2905   4.5595   5.2886
     6.3999   6.4644

          k = 0.1739 0.3012 0.1061 (  4274 PWs)   bands (ev):

  -117.6863-117.6858 -71.8415 -71.8415 -71.8411 -71.8410 -71.8404 -71.8400
    -5.2851  -4.7290   0.9819   1.0083   1.0394   1.1031   1.1611   1.2861
     1.3489   1.3937   1.4587   1.6026   2.8538   4.4355   4.4616   5.2959
     6.2989   6.4682

          k = 0.1739 0.3012 0.2121 (  4266 PWs)   bands (ev):

  -117.6863-117.6858 -71.8415 -71.8415 -71.8411 -71.8410 -71.8404 -71.8400
    -5.1738  -4.8528   0.9686   1.0117   1.0534   1.0884   1.1358   1.1577
     1.3852   1.4075   1.4477   1.5042   3.2706   4.1003   4.9561   5.4314
     6.0436   6.2456

          k = 0.1739 0.3012-0.3182 (  4262 PWs)   bands (ev):

  -117.6863-117.6858 -71.8415 -71.8415 -71.8411 -71.8410 -71.8404 -71.8400
    -5.0169  -5.0159   0.9832   0.9833   1.0741   1.0747   1.1118   1.1122
     1.4162   1.4164   1.4502   1.4503   3.6901   3.6909   5.5763   5.5769
     5.7907   5.7915

          k = 0.1739 0.5020-0.0000 (  4287 PWs)   bands (ev):

  -117.6863-117.6858 -71.8416 -71.8415 -71.8411 -71.8411 -71.8404 -71.8400
    -4.9327  -4.6054   0.9895   1.0700   1.1690   1.2176   1.2671   1.3048
     1.3782   1.4017   1.5019   1.7556   2.6160   3.4355   4.1009   4.5397
     5.6917   5.8284

          k = 0.1739 0.5020 0.1061 (  4285 PWs)   bands (ev):

  -117.6863-117.6858 -71.8416 -71.8415 -71.8411 -71.8411 -71.8404 -71.8400
    -4.9092  -4.6251   0.9956   1.0644   1.1469   1.2103   1.2510   1.2840
     1.3890   1.4108   1.5069   1.7327   2.5689   3.3075   4.2810   4.7107
     5.6784   5.8713

          k = 0.1739 0.5020 0.2121 (  4282 PWs)   bands (ev):

  -117.6863-117.6858 -71.8416 -71.8415 -71.8411 -71.8411 -71.8404 -71.8400
    -4.8457  -4.6811   1.0023   1.0552   1.1070   1.1861   1.2269   1.2494
     1.4088   1.4194   1.5328   1.6659   2.5871   3.0207   4.6066   5.2124
     5.3965   6.0333

          k = 0.1739 0.5020-0.3182 (  4278 PWs)   bands (ev):

  -117.6863-117.6858 -71.8416 -71.8415 -71.8411 -71.8411 -71.8404 -71.8400
    -4.7620  -4.7611   1.0174   1.0178   1.1366   1.1371   1.2286   1.2290
     1.4188   1.4191   1.5891   1.5894   2.7514   2.7524   4.9739   4.9751
     5.8146   5.8150

          k = 0.3478 0.6025-0.0000 (  4299 PWs)   bands (ev):

  -117.6863-117.6858 -71.8416 -71.8415 -71.8411 -71.8411 -71.8404 -71.8400
    -4.6891  -4.6882   0.9784   1.1600   1.1602   1.2678   1.3394   1.3397
     1.3837   1.4044   1.6390   1.6391   3.0071   3.0082   3.5256   4.9886
     4.9890   5.2148

          k = 0.3478 0.6025 0.1061 (  4296 PWs)   bands (ev):

  -117.6863-117.6858 -71.8416 -71.8415 -71.8411 -71.8411 -71.8404 -71.8400
    -4.6855  -4.6846   0.9948   1.1415   1.1416   1.2495   1.3304   1.3306
     1.3821   1.3921   1.6608   1.6608   2.8796   2.8806   3.6262   5.0735
     5.2317   5.2319

          k = 0.3478 0.6025 0.2121 (  4275 PWs)   bands (ev):

  -117.6863-117.6858 -71.8416 -71.8415 -71.8411 -71.8411 -71.8404 -71.8400
    -4.6784  -4.6775   1.0424   1.1022   1.1022   1.1922   1.3178   1.3178
     1.3777   1.3789   1.7034   1.7035   2.6757   2.6767   3.9024   4.7213
     5.6910   5.6911

          k = 0.3478 0.6025-0.3182 (  4290 PWs)   bands (ev):

  -117.6863-117.6858 -71.8416 -71.8415 -71.8411 -71.8411 -71.8404 -71.8400
    -4.6748  -4.6739   1.0818   1.0818   1.1129   1.1135   1.3127   1.3128
     1.3747   1.3752   1.7245   1.7247   2.5889   2.5900   4.2931   4.2945
     5.9209   5.9211

          k =-0.0000-0.2008 0.1061 (  4245 PWs)   bands (ev):

  -117.6863-117.6858 -71.8415 -71.8415 -71.8410 -71.8410 -71.8404 -71.8400
    -5.5771  -4.8763   0.9419   0.9853   0.9946   1.0514   1.0763   1.2963
     1.3651   1.3801   1.4482   1.5115   2.6969   5.2517   5.6758   6.0412
     6.7700   6.9205

          k =-0.0000-0.2008 0.2121 (  4258 PWs)   bands (ev):

  -117.6863-117.6858 -71.8415 -71.8415 -71.8410 -71.8410 -71.8404 -71.8400
    -5.4425  -5.0393   0.9369   0.9911   1.0086   1.0312   1.0557   1.1192
     1.3876   1.3951   1.4347   1.4509   3.4460   5.0378   5.5378   6.2119
     6.3871   6.7171

          k =-0.0000-0.4016 0.1061 (  4265 PWs)   bands (ev):

  -117.6863-117.6858 -71.8416 -71.8415 -71.8411 -71.8410 -71.8404 -71.8400
    -5.1710  -4.6854   0.9569   1.0345   1.0491   1.1755   1.1769   1.2676
     1.3774   1.4057   1.4616   1.6411   2.7525   3.8615   4.2914   5.4234
     6.2454   6.4748

          k =-0.0000-0.4016 0.2121 (  4272 PWs)   bands (ev):

  -117.6863-117.6858 -71.8416 -71.8415 -71.8411 -71.8410 -71.8404 -71.8400
    -5.0715  -4.7909   0.9477   1.0053   1.0746   1.1486   1.1635   1.1927
     1.4087   1.4155   1.4471   1.5304   2.9802   3.6242   4.8148   5.6252
     6.1010   6.2273

          k =-0.1739-0.5020 0.1061 (  4285 PWs)   bands (ev):

  -117.6863-117.6858 -71.8416 -71.8415 -71.8411 -71.8411 -71.8404 -71.8400
    -4.9092  -4.6251   0.9956   1.0643   1.1468   1.2105   1.2511   1.2841
     1.3887   1.4109   1.5069   1.7327   2.5689   3.3076   4.2809   4.7107
     5.6786   5.8712

          k =-0.1739-0.5020 0.2121 (  4282 PWs)   bands (ev):

  -117.6863-117.6858 -71.8416 -71.8415 -71.8411 -71.8411 -71.8404 -71.8400
    -4.8457  -4.6811   1.0023   1.0552   1.1069   1.1862   1.2272   1.2492
     1.4085   1.4197   1.5328   1.6659   2.5871   3.0208   4.6066   5.2122
     5.3968   6.0333

     highest occupied level (ev):     7.2134

!    total energy              =    -841.79945492 Ry
     estimated scf accuracy    <          2.2E-11 Ry

     The total energy is the sum of the following terms:
     one-electron contribution =    -681.78602923 Ry
     hartree contribution      =     347.69188165 Ry
     xc contribution           =     -81.97900137 Ry
     ewald contribution        =    -425.72630598 Ry

     convergence has been achieved in  11 iterations

     Forces acting on atoms (cartesian axes, Ry/au):

     atom    1 type  1   force =    -0.00000000   -0.00000000    0.00011083
     atom    2 type  2   force =     0.00000000    0.00000000   -0.00021887
     atom    3 type  1   force =     0.00000000    0.00000000    0.00015123
     atom    4 type  2   force =    -0.00000000   -0.00000000   -0.00004319
     The non-local contrib.  to forces
     atom    1 type  1   force =     0.00000000    0.00000000    0.00512644
     atom    2 type  2   force =     0.00000000    0.00000000    0.00307668
     atom    3 type  1   force =     0.00000000    0.00000000    0.00478573
     atom    4 type  2   force =     0.00000000    0.00000000    0.00343376
     The ionic contribution  to forces
     atom    1 type  1   force =     0.00000000   -0.00000001    0.25676030
     atom    2 type  2   force =     0.00000000   -0.00000001   -0.25938611
     atom    3 type  1   force =    -0.00000000    0.00000001    0.26150212
     atom    4 type  2   force =    -0.00000000    0.00000001   -0.25887632
     The local contribution  to forces
     atom    1 type  1   force =     0.00000000   -0.00000000   -0.26170492
     atom    2 type  2   force =     0.00000000   -0.00000000    0.25617562
     atom    3 type  1   force =    -0.00000000    0.00000048   -0.26604785
     atom    4 type  2   force =    -0.00000000   -0.00000001    0.25547535
     The core correction contribution to forces
     atom    1 type  1   force =     0.00000000    0.00000000    0.00000000
     atom    2 type  2   force =     0.00000000    0.00000000    0.00000000
     atom    3 type  1   force =     0.00000000    0.00000000    0.00000000
     atom    4 type  2   force =     0.00000000    0.00000000    0.00000000
     The Hubbard contrib.    to forces
     atom    1 type  1   force =     0.00000000    0.00000000    0.00000000
     atom    2 type  2   force =     0.00000000    0.00000000    0.00000000
     atom    3 type  1   force =     0.00000000    0.00000000    0.00000000
     atom    4 type  2   force =     0.00000000    0.00000000    0.00000000
     The SCF correction term to forces
     atom    1 type  1   force =     0.00000000   -0.00000000    0.00000945
     atom    2 type  2   force =    -0.00000000   -0.00000000   -0.00000463
     atom    3 type  1   force =     0.00000000    0.00000000   -0.00000833
     atom    4 type  2   force =    -0.00000000    0.00000000    0.00000445

     Total force =     0.000291     Total SCF correction =     0.000014


     Computing stress (Cartesian axis) and pressure

          total   stress  (Ry/bohr**3)                   (kbar)     P=      -28.74
  -0.00019499   0.00000000  -0.00000000          -28.68        0.00       -0.00
   0.00000000  -0.00019499   0.00000000            0.00      -28.68        0.00
  -0.00000000  -0.00000000  -0.00019618           -0.00       -0.00      -28.86


     Writing all to output data dir /home/paolo/project_labqsm/ZnS_wurtzite/SCRATCH/zns_w.save/

     init_run     :      5.86s CPU      6.07s WALL (       2 calls)
     electrons    :   3636.44s CPU   3653.51s WALL (      27 calls)
     update_pot   :     34.58s CPU     34.57s WALL (      25 calls)
     forces       :     42.58s CPU     42.59s WALL (      27 calls)
     stress       :    194.83s CPU    202.45s WALL (      27 calls)

     Called by init_run:
     wfcinit      :      4.22s CPU      4.33s WALL (       2 calls)
     potinit      :      1.05s CPU      1.11s WALL (       2 calls)
     hinit0       :      0.56s CPU      0.58s WALL (       2 calls)

     Called by electrons:
     c_bands      :   3305.95s CPU   3321.06s WALL (     398 calls)
     sum_band     :    316.14s CPU    317.87s WALL (     398 calls)
     v_of_rho     :     13.09s CPU     13.17s WALL (     421 calls)
     mix_rho      :      1.78s CPU      1.82s WALL (     398 calls)

     Called by c_bands:
     init_us_2    :     34.50s CPU     33.44s WALL (   28968 calls)
     init_us_2:cp :     34.48s CPU     33.31s WALL (   28968 calls)
     cegterg      :   3227.31s CPU   3242.44s WALL (   13610 calls)

     Called by *egterg:
     cdiaghg      :     34.19s CPU     35.12s WALL (   60856 calls)
     h_psi        :   2318.47s CPU   2332.69s WALL (   61988 calls)
     g_psi        :      9.69s CPU      9.59s WALL (   48310 calls)

     Called by h_psi:
     h_psi:calbec :    291.98s CPU    289.73s WALL (   61988 calls)
     vloc_psi     :   1817.67s CPU   1830.77s WALL (   61988 calls)
     add_vuspsi   :    202.42s CPU    205.40s WALL (   61988 calls)

     General routines
     calbec       :    323.05s CPU    320.54s WALL (   66578 calls)
     fft          :      5.44s CPU      5.65s WALL (    4428 calls)
     ffts         :      0.44s CPU      0.54s WALL (     398 calls)
     fftw         :   1914.34s CPU   1933.48s WALL ( 2514206 calls)


     PWSCF        :      1h 5m CPU      1h 5m WALL


   This run was terminated on:  11:42:56  10Jun2024            

=------------------------------------------------------------------------------=
   JOB DONE.
=------------------------------------------------------------------------------=
