
     Program PWSCF v.7.2 starts on 11Jun2024 at 12:55: 4 

     This program is part of the open-source Quantum ESPRESSO suite
     for quantum simulation of materials; please cite
         "P. Giannozzi et al., J. Phys.:Condens. Matter 21 395502 (2009);
         "P. Giannozzi et al., J. Phys.:Condens. Matter 29 465901 (2017);
         "P. Giannozzi et al., J. Chem. Phys. 152 154105 (2020);
          URL http://www.quantum-espresso.org", 
     in publications or presentations arising from this work. More details at
     http://www.quantum-espresso.org/quote

     Serial version
     8330 MiB available memory on the printing compute node when the environment starts

     Waiting for input...
     Reading input from standard input

     Current dimensions of program PWSCF are:
     Max number of different atomic species (ntypx) = 10
     Max number of k-points (npk) =  40000
     Max angular momentum in pseudopotentials (lmaxx) =  4
     file Ga.pz-dn-rrkjus_psl.0.2.UPF: wavefunction(s)  4S 3D renormalized


     G-vector sticks info
     --------------------
     sticks:   dense  smooth     PW     G-vecs:    dense   smooth      PW
     Sum        1261     637    199                29603    10417    1837

     Using Slab Decomposition



     bravais-lattice index     =            2
     lattice parameter (alat)  =      10.6829  a.u.
     unit-cell volume          =     304.7951 (a.u.)^3
     number of atoms/cell      =            2
     number of atomic types    =            2
     number of electrons       =        18.00
     number of Kohn-Sham states=            9
     kinetic-energy cutoff     =      40.0000  Ry
     charge density cutoff     =     320.0000  Ry
     scf convergence threshold =      1.0E-08
     mixing beta               =       0.7000
     number of iterations used =            8  plain     mixing
     Exchange-correlation= LDA
                           (   1   1   0   0   0   0   0)

     celldm(1)=  10.682904  celldm(2)=   0.000000  celldm(3)=   0.000000
     celldm(4)=   0.000000  celldm(5)=   0.000000  celldm(6)=   0.000000

     crystal axes: (cart. coord. in units of alat)
               a(1) = (  -0.500000   0.000000   0.500000 )  
               a(2) = (   0.000000   0.500000   0.500000 )  
               a(3) = (  -0.500000   0.500000   0.000000 )  

     reciprocal axes: (cart. coord. in units 2 pi/alat)
               b(1) = ( -1.000000 -1.000000  1.000000 )  
               b(2) = (  1.000000  1.000000  1.000000 )  
               b(3) = ( -1.000000  1.000000 -1.000000 )  


     PseudoPot. # 1 for Ga read from file:
     /home/paolo/LABQSM/pseudo/Ga.pz-dn-rrkjus_psl.0.2.UPF
     MD5 check sum: 337958ae198bc3768054a43796a587a1
     Pseudo is Ultrasoft + core correction, Zval = 13.0
     Generated using "atomic" code by A. Dal Corso  v.5.0.2 svn rev. 9415
     Using radial grid of 1205 points,  6 beta functions with: 
                l(1) =   0
                l(2) =   0
                l(3) =   1
                l(4) =   1
                l(5) =   2
                l(6) =   2
     Q(r) pseudized with 0 coefficients 


     PseudoPot. # 2 for As read from file:
     /home/paolo/LABQSM/pseudo/As.pz-n-rrkjus_psl.0.2.UPF
     MD5 check sum: f80104272e9b817acfe428865afbdb7e
     Pseudo is Ultrasoft + core correction, Zval =  5.0
     Generated using "atomic" code by A. Dal Corso  v.5.0.2 svn rev. 9415
     Using radial grid of 1209 points,  4 beta functions with: 
                l(1) =   0
                l(2) =   0
                l(3) =   1
                l(4) =   1
     Q(r) pseudized with 0 coefficients 


     atomic species   valence    mass     pseudopotential
        Ga            13.00    69.72300     Ga( 1.00)
        As             5.00    74.92200     As( 1.00)

     24 Sym. Ops. (no inversion) found



   Cartesian axes

     site n.     atom                  positions (alat units)
         1           Ga  tau(   1) = (   0.0000000   0.0000000   0.0000000  )
         2           As  tau(   2) = (   0.2500000   0.2500000   0.2500000  )

     number of k points=    72
                       cart. coord. in units 2pi/alat
        k(    1) = (   0.0000000   0.0000000   0.0000000), wk =   0.0011574
        k(    2) = (  -0.0833333   0.0833333  -0.0833333), wk =   0.0092593
        k(    3) = (  -0.1666667   0.1666667  -0.1666667), wk =   0.0092593
        k(    4) = (  -0.2500000   0.2500000  -0.2500000), wk =   0.0092593
        k(    5) = (  -0.3333333   0.3333333  -0.3333333), wk =   0.0092593
        k(    6) = (  -0.4166667   0.4166667  -0.4166667), wk =   0.0092593
        k(    7) = (   0.5000000  -0.5000000   0.5000000), wk =   0.0046296
        k(    8) = (   0.0000000   0.1666667   0.0000000), wk =   0.0069444
        k(    9) = (  -0.0833333   0.2500000  -0.0833333), wk =   0.0277778
        k(   10) = (  -0.1666667   0.3333333  -0.1666667), wk =   0.0277778
        k(   11) = (  -0.2500000   0.4166667  -0.2500000), wk =   0.0277778
        k(   12) = (  -0.3333333   0.5000000  -0.3333333), wk =   0.0277778
        k(   13) = (   0.5833333  -0.4166667   0.5833333), wk =   0.0277778
        k(   14) = (   0.5000000  -0.3333333   0.5000000), wk =   0.0277778
        k(   15) = (   0.4166667  -0.2500000   0.4166667), wk =   0.0277778
        k(   16) = (   0.3333333  -0.1666667   0.3333333), wk =   0.0277778
        k(   17) = (   0.2500000  -0.0833333   0.2500000), wk =   0.0277778
        k(   18) = (   0.1666667  -0.0000000   0.1666667), wk =   0.0138889
        k(   19) = (   0.0000000   0.3333333   0.0000000), wk =   0.0069444
        k(   20) = (  -0.0833333   0.4166667  -0.0833333), wk =   0.0277778
        k(   21) = (  -0.1666667   0.5000000  -0.1666667), wk =   0.0277778
        k(   22) = (  -0.2500000   0.5833333  -0.2500000), wk =   0.0277778
        k(   23) = (   0.6666667  -0.3333333   0.6666667), wk =   0.0277778
        k(   24) = (   0.5833333  -0.2500000   0.5833333), wk =   0.0277778
        k(   25) = (   0.5000000  -0.1666667   0.5000000), wk =   0.0277778
        k(   26) = (   0.4166667  -0.0833333   0.4166667), wk =   0.0277778
        k(   27) = (   0.3333333   0.0000000   0.3333333), wk =   0.0138889
        k(   28) = (   0.0000000   0.5000000   0.0000000), wk =   0.0069444
        k(   29) = (  -0.0833333   0.5833333  -0.0833333), wk =   0.0277778
        k(   30) = (  -0.1666667   0.6666667  -0.1666667), wk =   0.0277778
        k(   31) = (   0.7500000  -0.2500000   0.7500000), wk =   0.0277778
        k(   32) = (   0.6666667  -0.1666667   0.6666667), wk =   0.0277778
        k(   33) = (   0.5833333  -0.0833333   0.5833333), wk =   0.0277778
        k(   34) = (   0.5000000   0.0000000   0.5000000), wk =   0.0138889
        k(   35) = (   0.0000000   0.6666667   0.0000000), wk =   0.0069444
        k(   36) = (  -0.0833333   0.7500000  -0.0833333), wk =   0.0277778
        k(   37) = (   0.8333333  -0.1666667   0.8333333), wk =   0.0277778
        k(   38) = (   0.7500000  -0.0833333   0.7500000), wk =   0.0277778
        k(   39) = (   0.6666667  -0.0000000   0.6666667), wk =   0.0138889
        k(   40) = (   0.0000000   0.8333333   0.0000000), wk =   0.0069444
        k(   41) = (   0.9166667  -0.0833333   0.9166667), wk =   0.0277778
        k(   42) = (   0.8333333   0.0000000   0.8333333), wk =   0.0138889
        k(   43) = (   0.0000000  -1.0000000   0.0000000), wk =   0.0034722
        k(   44) = (  -0.1666667   0.3333333   0.0000000), wk =   0.0277778
        k(   45) = (  -0.2500000   0.4166667  -0.0833333), wk =   0.0555556
        k(   46) = (  -0.3333333   0.5000000  -0.1666667), wk =   0.0555556
        k(   47) = (   0.5833333  -0.4166667   0.7500000), wk =   0.0555556
        k(   48) = (   0.5000000  -0.3333333   0.6666667), wk =   0.0277778
        k(   49) = (  -0.1666667   0.5000000   0.0000000), wk =   0.0277778
        k(   50) = (  -0.2500000   0.5833333  -0.0833333), wk =   0.0555556
        k(   51) = (   0.6666667  -0.3333333   0.8333333), wk =   0.0555556
        k(   52) = (   0.5833333  -0.2500000   0.7500000), wk =   0.0555556
        k(   53) = (   0.5000000  -0.1666667   0.6666667), wk =   0.0555556
        k(   54) = (   0.4166667  -0.0833333   0.5833333), wk =   0.0555556
        k(   55) = (   0.3333333   0.0000000   0.5000000), wk =   0.0277778
        k(   56) = (  -0.1666667   0.6666667  -0.0000000), wk =   0.0277778
        k(   57) = (   0.7500000  -0.2500000   0.9166667), wk =   0.0555556
        k(   58) = (   0.6666667  -0.1666667   0.8333333), wk =   0.0555556
        k(   59) = (   0.5833333  -0.0833333   0.7500000), wk =   0.0555556
        k(   60) = (   0.5000000   0.0000000   0.6666667), wk =   0.0277778
        k(   61) = (   0.8333333  -0.1666667   1.0000000), wk =   0.0277778
        k(   62) = (   0.7500000  -0.0833333   0.9166667), wk =   0.0555556
        k(   63) = (   0.6666667   0.0000000   0.8333333), wk =   0.0277778
        k(   64) = (  -0.1666667  -1.0000000  -0.0000000), wk =   0.0138889
        k(   65) = (   0.6666667  -0.3333333   1.0000000), wk =   0.0277778
        k(   66) = (   0.5833333  -0.2500000   0.9166667), wk =   0.0555556
        k(   67) = (   0.5000000  -0.1666667   0.8333333), wk =   0.0277778
        k(   68) = (   0.6666667  -0.1666667   1.0000000), wk =   0.0277778
        k(   69) = (   0.5833333  -0.0833333   0.9166667), wk =   0.0555556
        k(   70) = (   0.5000000   0.0000000   0.8333333), wk =   0.0277778
        k(   71) = (  -0.3333333  -1.0000000   0.0000000), wk =   0.0138889
        k(   72) = (  -0.5000000  -1.0000000   0.0000000), wk =   0.0069444

     Dense  grid:    29603 G-vectors     FFT dimensions: (  45,  45,  45)

     Smooth grid:    10417 G-vectors     FFT dimensions: (  32,  32,  32)

     Estimated max dynamical RAM per process >     120.23 MB

     Initial potential from superposition of free atoms

     starting charge      17.9975, renormalised to      18.0000
     Starting wfcs are   13 randomized atomic wfcs

     total cpu time spent up to now is        1.3 secs

     Self-consistent Calculation

     iteration #  1     ecut=    40.00 Ry     beta= 0.70
     Davidson diagonalization with overlap
     ethr =  1.00E-02,  avg # of iterations =  1.5

     Threshold (ethr) on eigenvalues was too large:
     Diagonalizing with lowered threshold

     Davidson diagonalization with overlap
     ethr =  3.68E-04,  avg # of iterations =  2.0

     total cpu time spent up to now is        4.1 secs

     total energy              =    -190.70937057 Ry
     estimated scf accuracy    <       0.05507576 Ry

     iteration #  2     ecut=    40.00 Ry     beta= 0.70
     Davidson diagonalization with overlap
     ethr =  3.06E-04,  avg # of iterations =  2.4

     total cpu time spent up to now is        5.9 secs

     total energy              =    -190.70689876 Ry
     estimated scf accuracy    <       0.07577454 Ry

     iteration #  3     ecut=    40.00 Ry     beta= 0.70
     Davidson diagonalization with overlap
     ethr =  3.06E-04,  avg # of iterations =  2.0

     total cpu time spent up to now is        7.5 secs

     total energy              =    -190.72346507 Ry
     estimated scf accuracy    <       0.01647017 Ry

     iteration #  4     ecut=    40.00 Ry     beta= 0.70
     Davidson diagonalization with overlap
     ethr =  9.15E-05,  avg # of iterations =  2.0

     total cpu time spent up to now is        9.2 secs

     total energy              =    -190.72626490 Ry
     estimated scf accuracy    <       0.00013696 Ry

     iteration #  5     ecut=    40.00 Ry     beta= 0.70
     Davidson diagonalization with overlap
     ethr =  7.61E-07,  avg # of iterations =  4.0

     total cpu time spent up to now is       11.0 secs

     total energy              =    -190.72642568 Ry
     estimated scf accuracy    <       0.00009926 Ry

     iteration #  6     ecut=    40.00 Ry     beta= 0.70
     Davidson diagonalization with overlap
     ethr =  5.51E-07,  avg # of iterations =  2.0

     total cpu time spent up to now is       12.6 secs

     total energy              =    -190.72629825 Ry
     estimated scf accuracy    <       0.00022805 Ry

     iteration #  7     ecut=    40.00 Ry     beta= 0.70
     Davidson diagonalization with overlap
     ethr =  5.51E-07,  avg # of iterations =  2.8

     total cpu time spent up to now is       14.2 secs

     total energy              =    -190.72634011 Ry
     estimated scf accuracy    <       0.00000084 Ry

     iteration #  8     ecut=    40.00 Ry     beta= 0.70
     Davidson diagonalization with overlap
     ethr =  4.65E-09,  avg # of iterations =  5.3

     total cpu time spent up to now is       16.6 secs

     total energy              =    -190.72634126 Ry
     estimated scf accuracy    <       0.00000103 Ry

     iteration #  9     ecut=    40.00 Ry     beta= 0.70
     Davidson diagonalization with overlap
     ethr =  4.65E-09,  avg # of iterations =  2.0

     total cpu time spent up to now is       18.2 secs

     total energy              =    -190.72634125 Ry
     estimated scf accuracy    <       0.00000034 Ry

     iteration # 10     ecut=    40.00 Ry     beta= 0.70
     Davidson diagonalization with overlap
     ethr =  1.86E-09,  avg # of iterations =  2.6

     total cpu time spent up to now is       19.9 secs

     total energy              =    -190.72634135 Ry
     estimated scf accuracy    <       0.00000008 Ry

     iteration # 11     ecut=    40.00 Ry     beta= 0.70
     Davidson diagonalization with overlap
     ethr =  4.25E-10,  avg # of iterations =  1.0

     total cpu time spent up to now is       21.2 secs

     total energy              =    -190.72634135 Ry
     estimated scf accuracy    <       0.00000003 Ry

     iteration # 12     ecut=    40.00 Ry     beta= 0.70
     Davidson diagonalization with overlap
     ethr =  1.65E-10,  avg # of iterations =  2.0

     total cpu time spent up to now is       22.7 secs

     End of self-consistent calculation

          k = 0.0000 0.0000 0.0000 (  1291 PWs)   bands (ev):

    -8.4263  -8.4263  -8.4263  -8.3479  -8.3479  -6.3308   6.4598   6.4598
     6.4598

          k =-0.0833 0.0833-0.0833 (  1303 PWs)   bands (ev):

    -8.4325  -8.4248  -8.4248  -8.3480  -8.3480  -6.2493   5.1693   6.3447
     6.3447

          k =-0.1667 0.1667-0.1667 (  1315 PWs)   bands (ev):

    -8.4484  -8.4206  -8.4206  -8.3481  -8.3481  -6.0119   3.6727   6.0750
     6.0750

          k =-0.2500 0.2500-0.2500 (  1314 PWs)   bands (ev):

    -8.4683  -8.4153  -8.4153  -8.3475  -8.3475  -5.6414   2.2488   5.7758
     5.7758

          k =-0.3333 0.3333-0.3333 (  1308 PWs)   bands (ev):

    -8.4866  -8.4109  -8.4109  -8.3460  -8.3460  -5.1880   1.0112   5.5269
     5.5269

          k =-0.4167 0.4167-0.4167 (  1302 PWs)   bands (ev):

    -8.4992  -8.4081  -8.4081  -8.3443  -8.3443  -4.7632   0.1047   5.3667
     5.3667

          k = 0.5000-0.5000 0.5000 (  1308 PWs)   bands (ev):

    -8.5039  -8.4073  -8.4073  -8.3435  -8.3435  -4.5736  -0.2471   5.3118
     5.3118

          k = 0.0000 0.1667 0.0000 (  1299 PWs)   bands (ev):

    -8.4361  -8.4233  -8.4233  -8.3491  -8.3469  -6.2222   5.1083   6.1225
     6.1225

          k =-0.0833 0.2500-0.0833 (  1307 PWs)   bands (ev):

    -8.4490  -8.4198  -8.4191  -8.3505  -8.3461  -6.0367   3.9888   5.7982
     5.8759

          k =-0.1667 0.3333-0.1667 (  1317 PWs)   bands (ev):

    -8.4667  -8.4155  -8.4137  -8.3512  -8.3452  -5.7096   2.6444   5.4906
     5.5429

          k =-0.2500 0.4167-0.2500 (  1313 PWs)   bands (ev):

    -8.4843  -8.4113  -8.4090  -8.3503  -8.3440  -5.2793   1.3855   5.1864
     5.2659

          k =-0.3333 0.5000-0.3333 (  1300 PWs)   bands (ev):

    -8.4978  -8.4081  -8.4060  -8.3479  -8.3429  -4.8312   0.3765   4.8909
     5.1539

          k = 0.5833-0.4167 0.5833 (  1307 PWs)   bands (ev):

    -8.5047  -8.4065  -8.4050  -8.3457  -8.3432  -4.5409  -0.1738   4.6966
     5.1636

          k = 0.5000-0.3333 0.5000 (  1300 PWs)   bands (ev):

    -8.5030  -8.4064  -8.4058  -8.3448  -8.3444  -4.6062  -0.0551   4.6240
     5.2909

          k = 0.4167-0.2500 0.4167 (  1302 PWs)   bands (ev):

    -8.4934  -8.4085  -8.4078  -8.3474  -8.3445  -4.9751   0.6772   4.6851
     5.5197

          k = 0.3333-0.1667 0.3333 (  1315 PWs)   bands (ev):

    -8.4778  -8.4132  -8.4111  -8.3495  -8.3456  -5.4314   1.7858   4.8874
     5.8182

          k = 0.2500-0.0833 0.2500 (  1312 PWs)   bands (ev):

    -8.4593  -8.4185  -8.4157  -8.3499  -8.3465  -5.8333   3.0738   5.2393
     6.1273

          k = 0.1667-0.0000 0.1667 (  1307 PWs)   bands (ev):

    -8.4424  -8.4230  -8.4208  -8.3491  -8.3472  -6.1158   4.3266   5.7648
     6.3430

          k = 0.0000 0.3333 0.0000 (  1307 PWs)   bands (ev):

    -8.4602  -8.4147  -8.4147  -8.3533  -8.3444  -5.9055   3.6637   5.4368
     5.4368

          k =-0.0833 0.4167-0.0833 (  1317 PWs)   bands (ev):

    -8.4753  -8.4098  -8.4089  -8.3555  -8.3430  -5.6294   2.7352   5.0460
     5.1088

          k =-0.1667 0.5000-0.1667 (  1305 PWs)   bands (ev):

    -8.4900  -8.4061  -8.4036  -8.3560  -8.3416  -5.2376   1.6458   4.5673
     4.8785

          k =-0.2500 0.5833-0.2500 (  1300 PWs)   bands (ev):

    -8.5017  -8.4040  -8.4002  -8.3542  -8.3410  -4.7956   0.6600   4.1190
     4.7756

          k = 0.6667-0.3333 0.6667 (  1292 PWs)   bands (ev):

    -8.5080  -8.4032  -8.3990  -8.3511  -8.3419  -4.4430   0.0003   3.7818
     4.8096

          k = 0.5833-0.2500 0.5833 (  1299 PWs)   bands (ev):

    -8.5081  -8.4034  -8.3999  -8.3481  -8.3445  -4.3859  -0.0950   3.5937
     4.9747

          k = 0.5000-0.1667 0.5000 (  1299 PWs)   bands (ev):

    -8.5015  -8.4046  -8.4029  -8.3478  -8.3461  -4.6680   0.4161   3.5849
     5.2503

          k = 0.4167-0.0833 0.4167 (  1314 PWs)   bands (ev):

    -8.4896  -8.4079  -8.4068  -8.3504  -8.3454  -5.1010   1.2993   3.8024
     5.5941

          k = 0.3333 0.0000 0.3333 (  1313 PWs)   bands (ev):

    -8.4746  -8.4138  -8.4106  -8.3509  -8.3455  -5.5171   2.2652   4.3368
     5.9283

          k = 0.0000 0.5000 0.0000 (  1299 PWs)   bands (ev):

    -8.4885  -8.4025  -8.4025  -8.3594  -8.3408  -5.4070   2.2876   4.7560
     4.7560

          k =-0.0833 0.5833-0.0833 (  1305 PWs)   bands (ev):

    -8.5015  -8.3976  -8.3967  -8.3616  -8.3394  -5.0649   1.5239   4.3122
     4.5027

          k =-0.1667 0.6667-0.1667 (  1296 PWs)   bands (ev):

    -8.5109  -8.3957  -8.3927  -8.3612  -8.3388  -4.6544   0.7296   3.7134
     4.3824

          k = 0.7500-0.2500 0.7500 (  1290 PWs)   bands (ev):

    -8.5154  -8.3965  -8.3911  -8.3584  -8.3398  -4.2856   0.1152   3.1843
     4.4073

          k = 0.6667-0.1667 0.6667 (  1304 PWs)   bands (ev):

    -8.5149  -8.3986  -8.3922  -8.3545  -8.3430  -4.1401  -0.0976   2.8437
     4.5741

          k = 0.5833-0.0833 0.5833 (  1302 PWs)   bands (ev):

    -8.5097  -8.4010  -8.3956  -8.3504  -8.3466  -4.3198   0.1818   2.7665
     4.8629

          k = 0.5000 0.0000 0.5000 (  1312 PWs)   bands (ev):

    -8.5008  -8.4037  -8.4014  -8.3494  -8.3472  -4.6975   0.7415   3.0555
     5.2305

          k = 0.0000 0.6667 0.0000 (  1299 PWs)   bands (ev):

    -8.5133  -8.3901  -8.3901  -8.3659  -8.3375  -4.7789   1.0267   4.2193
     4.2193

          k =-0.0833 0.7500-0.0833 (  1301 PWs)   bands (ev):

    -8.5218  -8.3868  -8.3856  -8.3675  -8.3365  -4.4238   0.4404   3.7910
     4.0683

          k = 0.8333-0.1667 0.8333 (  1300 PWs)   bands (ev):

    -8.5250  -8.3880  -8.3839  -8.3655  -8.3373  -4.0910  -0.0207   3.1541
     4.0661

          k = 0.7500-0.0833 0.7500 (  1299 PWs)   bands (ev):

    -8.5229  -8.3918  -8.3852  -8.3612  -8.3401  -3.9262  -0.2011   2.6345
     4.2125

          k = 0.6667-0.0000 0.6667 (  1300 PWs)   bands (ev):

    -8.5173  -8.3965  -8.3892  -8.3558  -8.3438  -4.0266  -0.0707   2.4497
     4.4911

          k = 0.0000 0.8333 0.0000 (  1298 PWs)   bands (ev):

    -8.5299  -8.3808  -8.3808  -8.3712  -8.3348  -4.1481   0.0106   3.8816
     3.8816

          k = 0.9167-0.0833 0.9167 (  1303 PWs)   bands (ev):

    -8.5327  -8.3808  -8.3792  -8.3707  -8.3349  -3.9137  -0.2965   3.5235
     3.8435

          k = 0.8333 0.0000 0.8333 (  1300 PWs)   bands (ev):

    -8.5299  -8.3852  -8.3806  -8.3669  -8.3370  -3.8281  -0.3457   2.9619
     3.9579

          k = 0.0000-1.0000 0.0000 (  1298 PWs)   bands (ev):

    -8.5357  -8.3774  -8.3774  -8.3731  -8.3338  -3.8383  -0.4291   3.7667
     3.7667

          k =-0.1667 0.3333 0.0000 (  1319 PWs)   bands (ev):

    -8.4632  -8.4159  -8.4138  -8.3524  -8.3450  -5.8059   3.1578   5.0583
     5.7889

          k =-0.2500 0.4167-0.0833 (  1311 PWs)   bands (ev):

    -8.4794  -8.4111  -8.4086  -8.3530  -8.3438  -5.4456   2.0727   4.4978
     5.5397

          k =-0.3333 0.5000-0.1667 (  1303 PWs)   bands (ev):

    -8.4939  -8.4073  -8.4044  -8.3518  -8.3431  -5.0055   0.9964   4.1592
     5.2431

          k = 0.5833-0.4167 0.7500 (  1302 PWs)   bands (ev):

    -8.5039  -8.4053  -8.4017  -8.3493  -8.3431  -4.5950   0.1688   3.9820
     5.0211

          k = 0.5000-0.3333 0.6667 (  1306 PWs)   bands (ev):

    -8.5075  -8.4048  -8.4009  -8.3478  -8.3436  -4.4129  -0.1572   3.9277
     4.9396

          k =-0.1667 0.5000 0.0000 (  1313 PWs)   bands (ev):

    -8.4891  -8.4047  -8.4030  -8.3577  -8.3415  -5.3197   1.9930   4.3789
     4.9664

          k =-0.2500 0.5833-0.0833 (  1300 PWs)   bands (ev):

    -8.5011  -8.4017  -8.3979  -8.3578  -8.3407  -4.9153   1.1332   3.8324
     4.7105

          k = 0.6667-0.3333 0.8333 (  1301 PWs)   bands (ev):

    -8.5093  -8.4009  -8.3947  -8.3560  -8.3411  -4.5005   0.3626   3.4373
     4.5236

          k = 0.5833-0.2500 0.7500 (  1298 PWs)   bands (ev):

    -8.5124  -8.4012  -8.3937  -8.3530  -8.3428  -4.2399  -0.0697   3.1834
     4.5054

          k = 0.5000-0.1667 0.6667 (  1297 PWs)   bands (ev):

    -8.5103  -8.4021  -8.3950  -8.3513  -8.3444  -4.3053   0.0406   3.0941
     4.6606

          k = 0.4167-0.0833 0.5833 (  1302 PWs)   bands (ev):

    -8.5033  -8.4037  -8.3985  -8.3524  -8.3441  -4.6463   0.6182   3.2266
     4.9483

          k = 0.3333 0.0000 0.5000 (  1301 PWs)   bands (ev):

    -8.4924  -8.4065  -8.4034  -8.3534  -8.3435  -5.0702   1.3769   3.6740
     5.2894

          k =-0.1667 0.6667-0.0000 (  1298 PWs)   bands (ev):

    -8.5120  -8.3935  -8.3909  -8.3635  -8.3383  -4.7121   0.8993   3.8659
     4.2543

          k = 0.7500-0.2500 0.9167 (  1302 PWs)   bands (ev):

    -8.5183  -8.3932  -8.3875  -8.3627  -8.3385  -4.3294   0.3075   3.3271
     4.0600

          k = 0.6667-0.1667 0.8333 (  1297 PWs)   bands (ev):

    -8.5197  -8.3951  -8.3865  -8.3595  -8.3406  -4.0478  -0.0751   2.8449
     4.0627

          k = 0.5833-0.0833 0.7500 (  1296 PWs)   bands (ev):

    -8.5170  -8.3980  -8.3881  -8.3557  -8.3436  -4.0261  -0.0892   2.5866
     4.2463

          k = 0.5000 0.0000 0.6667 (  1303 PWs)   bands (ev):

    -8.5113  -8.4009  -8.3924  -8.3531  -8.3452  -4.2751   0.2194   2.6813
     4.5668

          k = 0.8333-0.1667 1.0000 (  1302 PWs)   bands (ev):

    -8.5273  -8.3851  -8.3822  -8.3680  -8.3362  -4.1120   0.0019   3.5744
     3.7673

          k = 0.7500-0.0833 0.9167 (  1297 PWs)   bands (ev):

    -8.5275  -8.3877  -8.3815  -8.3653  -8.3378  -3.8846  -0.2494   3.0453
     3.7251

          k = 0.6667 0.0000 0.8333 (  1286 PWs)   bands (ev):

    -8.5233  -8.3926  -8.3832  -8.3609  -8.3407  -3.8539  -0.2417   2.6084
     3.9125

          k =-0.1667-1.0000-0.0000 (  1294 PWs)   bands (ev):

    -8.5326  -8.3818  -8.3793  -8.3692  -8.3355  -3.8238  -0.3874   3.5154
     3.5611

          k = 0.6667-0.3333 1.0000 (  1300 PWs)   bands (ev):

    -8.5098  -8.3997  -8.3924  -8.3580  -8.3412  -4.5281   0.5824   3.2135
     4.3887

          k = 0.5833-0.2500 0.9167 (  1299 PWs)   bands (ev):

    -8.5151  -8.3992  -8.3886  -8.3567  -8.3425  -4.1769   0.0981   2.8664
     4.0929

          k = 0.5000-0.1667 0.8333 (  1290 PWs)   bands (ev):

    -8.5168  -8.3991  -8.3873  -8.3555  -8.3433  -4.0255  -0.1070   2.7608
     3.9780

          k = 0.6667-0.1667 1.0000 (  1306 PWs)   bands (ev):

    -8.5218  -8.3937  -8.3839  -8.3617  -8.3400  -4.0216  -0.0382   3.0203
     3.6272

          k = 0.5833-0.0833 0.9167 (  1291 PWs)   bands (ev):

    -8.5216  -8.3956  -8.3827  -8.3592  -8.3420  -3.8548  -0.2004   2.7480
     3.4871

          k = 0.5000 0.0000 0.8333 (  1297 PWs)   bands (ev):

    -8.5193  -8.3977  -8.3843  -8.3573  -8.3434  -3.9214  -0.1247   2.6358
     3.6907

          k =-0.3333-1.0000 0.0000 (  1290 PWs)   bands (ev):

    -8.5259  -8.3910  -8.3809  -8.3627  -8.3397  -3.7942  -0.2965   3.0865
     3.2219

          k =-0.5000-1.0000 0.0000 (  1316 PWs)   bands (ev):

    -8.5223  -8.3963  -8.3817  -8.3590  -8.3431  -3.7792  -0.2465   2.8941
     3.0760

     highest occupied level (ev):     6.4598

!    total energy              =    -190.72634134 Ry
     estimated scf accuracy    <          8.6E-09 Ry

     The total energy is the sum of the following terms:
     one-electron contribution =    -112.22787940 Ry
     hartree contribution      =      71.62010626 Ry
     xc contribution           =     -57.09939714 Ry
     ewald contribution        =     -93.01917106 Ry

     convergence has been achieved in  12 iterations

     Writing all to output data dir ./SCRATCH/gallium arsenide.save/

     init_run     :      1.09s CPU      1.24s WALL (       1 calls)
     electrons    :     19.11s CPU     21.37s WALL (       1 calls)

     Called by init_run:
     wfcinit      :      0.66s CPU      0.68s WALL (       1 calls)
     potinit      :      0.00s CPU      0.02s WALL (       1 calls)
     hinit0       :      0.36s CPU      0.37s WALL (       1 calls)

     Called by electrons:
     c_bands      :     15.22s CPU     15.58s WALL (      13 calls)
     sum_band     :      3.19s CPU      4.21s WALL (      13 calls)
     v_of_rho     :      0.05s CPU      0.06s WALL (      13 calls)
     newd         :      0.67s CPU      1.62s WALL (      13 calls)
     mix_rho      :      0.05s CPU      0.03s WALL (      13 calls)

     Called by c_bands:
     init_us_2    :      0.53s CPU      0.52s WALL (    1944 calls)
     init_us_2:cp :      0.53s CPU      0.51s WALL (    1944 calls)
     cegterg      :     14.44s CPU     14.65s WALL (     936 calls)

     Called by *egterg:
     cdiaghg      :      0.16s CPU      0.18s WALL (    3143 calls)
     h_psi        :     11.86s CPU     12.47s WALL (    3287 calls)
     s_psi        :      0.73s CPU      0.61s WALL (    3287 calls)
     g_psi        :      0.05s CPU      0.05s WALL (    2279 calls)

     Called by h_psi:
     h_psi:calbec :      0.75s CPU      0.82s WALL (    3287 calls)
     vloc_psi     :     10.48s CPU     10.97s WALL (    3287 calls)
     add_vuspsi   :      0.58s CPU      0.61s WALL (    3287 calls)

     General routines
     calbec       :      1.02s CPU      1.10s WALL (    4223 calls)
     fft          :      0.12s CPU      0.08s WALL (      77 calls)
     ffts         :      0.00s CPU      0.01s WALL (      26 calls)
     fftw         :     10.94s CPU     11.13s WALL (   54744 calls)
     interpolate  :      0.02s CPU      0.02s WALL (      13 calls)


     PWSCF        :     20.30s CPU     22.75s WALL


   This run was terminated on:  12:55:27  11Jun2024            

=------------------------------------------------------------------------------=
   JOB DONE.
=------------------------------------------------------------------------------=
