
     Program PWSCF v.7.2 starts on 11Jun2024 at 12:54:39 

     This program is part of the open-source Quantum ESPRESSO suite
     for quantum simulation of materials; please cite
         "P. Giannozzi et al., J. Phys.:Condens. Matter 21 395502 (2009);
         "P. Giannozzi et al., J. Phys.:Condens. Matter 29 465901 (2017);
         "P. Giannozzi et al., J. Chem. Phys. 152 154105 (2020);
          URL http://www.quantum-espresso.org", 
     in publications or presentations arising from this work. More details at
     http://www.quantum-espresso.org/quote

     Serial version
     8321 MiB available memory on the printing compute node when the environment starts

     Waiting for input...
     Reading input from standard input

     Current dimensions of program PWSCF are:
     Max number of different atomic species (ntypx) = 10
     Max number of k-points (npk) =  40000
     Max angular momentum in pseudopotentials (lmaxx) =  4
     file Ga.pz-dn-rrkjus_psl.0.2.UPF: wavefunction(s)  4S 3D renormalized


     G-vector sticks info
     --------------------
     sticks:   dense  smooth     PW     G-vecs:    dense   smooth      PW
     Sum        1261     637    199                29603    10417    1807

     Using Slab Decomposition



     bravais-lattice index     =            2
     lattice parameter (alat)  =      10.6829  a.u.
     unit-cell volume          =     304.7951 (a.u.)^3
     number of atoms/cell      =            2
     number of atomic types    =            2
     number of electrons       =        18.00
     number of Kohn-Sham states=            9
     kinetic-energy cutoff     =      40.0000  Ry
     charge density cutoff     =     320.0000  Ry
     scf convergence threshold =      1.0E-08
     mixing beta               =       0.7000
     number of iterations used =            8  plain     mixing
     Exchange-correlation= LDA
                           (   1   1   0   0   0   0   0)

     celldm(1)=  10.682904  celldm(2)=   0.000000  celldm(3)=   0.000000
     celldm(4)=   0.000000  celldm(5)=   0.000000  celldm(6)=   0.000000

     crystal axes: (cart. coord. in units of alat)
               a(1) = (  -0.500000   0.000000   0.500000 )  
               a(2) = (   0.000000   0.500000   0.500000 )  
               a(3) = (  -0.500000   0.500000   0.000000 )  

     reciprocal axes: (cart. coord. in units 2 pi/alat)
               b(1) = ( -1.000000 -1.000000  1.000000 )  
               b(2) = (  1.000000  1.000000  1.000000 )  
               b(3) = ( -1.000000  1.000000 -1.000000 )  


     PseudoPot. # 1 for Ga read from file:
     /home/paolo/LABQSM/pseudo/Ga.pz-dn-rrkjus_psl.0.2.UPF
     MD5 check sum: 337958ae198bc3768054a43796a587a1
     Pseudo is Ultrasoft + core correction, Zval = 13.0
     Generated using "atomic" code by A. Dal Corso  v.5.0.2 svn rev. 9415
     Using radial grid of 1205 points,  6 beta functions with: 
                l(1) =   0
                l(2) =   0
                l(3) =   1
                l(4) =   1
                l(5) =   2
                l(6) =   2
     Q(r) pseudized with 0 coefficients 


     PseudoPot. # 2 for As read from file:
     /home/paolo/LABQSM/pseudo/As.pz-n-rrkjus_psl.0.2.UPF
     MD5 check sum: f80104272e9b817acfe428865afbdb7e
     Pseudo is Ultrasoft + core correction, Zval =  5.0
     Generated using "atomic" code by A. Dal Corso  v.5.0.2 svn rev. 9415
     Using radial grid of 1209 points,  4 beta functions with: 
                l(1) =   0
                l(2) =   0
                l(3) =   1
                l(4) =   1
     Q(r) pseudized with 0 coefficients 


     atomic species   valence    mass     pseudopotential
        Ga            13.00    69.72300     Ga( 1.00)
        As             5.00    74.92200     As( 1.00)

     24 Sym. Ops. (no inversion) found



   Cartesian axes

     site n.     atom                  positions (alat units)
         1           Ga  tau(   1) = (   0.0000000   0.0000000   0.0000000  )
         2           As  tau(   2) = (   0.2500000   0.2500000   0.2500000  )

     number of k points=     8
                       cart. coord. in units 2pi/alat
        k(    1) = (   0.0000000   0.0000000   0.0000000), wk =   0.0312500
        k(    2) = (  -0.2500000   0.2500000  -0.2500000), wk =   0.2500000
        k(    3) = (   0.5000000  -0.5000000   0.5000000), wk =   0.1250000
        k(    4) = (   0.0000000   0.5000000   0.0000000), wk =   0.1875000
        k(    5) = (   0.7500000  -0.2500000   0.7500000), wk =   0.7500000
        k(    6) = (   0.5000000   0.0000000   0.5000000), wk =   0.3750000
        k(    7) = (   0.0000000  -1.0000000   0.0000000), wk =   0.0937500
        k(    8) = (  -0.5000000  -1.0000000   0.0000000), wk =   0.1875000

     Dense  grid:    29603 G-vectors     FFT dimensions: (  45,  45,  45)

     Smooth grid:    10417 G-vectors     FFT dimensions: (  32,  32,  32)

     Estimated max dynamical RAM per process >     108.79 MB

     Initial potential from superposition of free atoms

     starting charge      17.9975, renormalised to      18.0000
     Starting wfcs are   13 randomized atomic wfcs

     total cpu time spent up to now is        0.7 secs

     Self-consistent Calculation

     iteration #  1     ecut=    40.00 Ry     beta= 0.70
     Davidson diagonalization with overlap
     ethr =  1.00E-02,  avg # of iterations =  1.4

     Threshold (ethr) on eigenvalues was too large:
     Diagonalizing with lowered threshold

     Davidson diagonalization with overlap
     ethr =  4.03E-04,  avg # of iterations =  1.8

     total cpu time spent up to now is        1.4 secs

     total energy              =    -190.69352192 Ry
     estimated scf accuracy    <       0.06183903 Ry

     iteration #  2     ecut=    40.00 Ry     beta= 0.70
     Davidson diagonalization with overlap
     ethr =  3.44E-04,  avg # of iterations =  2.5

     total cpu time spent up to now is        1.8 secs

     total energy              =    -190.69169746 Ry
     estimated scf accuracy    <       0.07688523 Ry

     iteration #  3     ecut=    40.00 Ry     beta= 0.70
     Davidson diagonalization with overlap
     ethr =  3.44E-04,  avg # of iterations =  2.0

     total cpu time spent up to now is        2.2 secs

     total energy              =    -190.70855705 Ry
     estimated scf accuracy    <       0.02024448 Ry

     iteration #  4     ecut=    40.00 Ry     beta= 0.70
     Davidson diagonalization with overlap
     ethr =  1.12E-04,  avg # of iterations =  2.0

     total cpu time spent up to now is        2.6 secs

     total energy              =    -190.71201367 Ry
     estimated scf accuracy    <       0.00017966 Ry

     iteration #  5     ecut=    40.00 Ry     beta= 0.70
     Davidson diagonalization with overlap
     ethr =  9.98E-07,  avg # of iterations =  4.0

     total cpu time spent up to now is        3.1 secs

     total energy              =    -190.71219227 Ry
     estimated scf accuracy    <       0.00011896 Ry

     iteration #  6     ecut=    40.00 Ry     beta= 0.70
     Davidson diagonalization with overlap
     ethr =  6.61E-07,  avg # of iterations =  1.9

     total cpu time spent up to now is        3.5 secs

     total energy              =    -190.71205647 Ry
     estimated scf accuracy    <       0.00024545 Ry

     iteration #  7     ecut=    40.00 Ry     beta= 0.70
     Davidson diagonalization with overlap
     ethr =  6.61E-07,  avg # of iterations =  3.1

     total cpu time spent up to now is        3.9 secs

     total energy              =    -190.71209851 Ry
     estimated scf accuracy    <       0.00000191 Ry

     iteration #  8     ecut=    40.00 Ry     beta= 0.70
     Davidson diagonalization with overlap
     ethr =  1.06E-08,  avg # of iterations =  5.9

     total cpu time spent up to now is        4.4 secs

     total energy              =    -190.71210093 Ry
     estimated scf accuracy    <       0.00000427 Ry

     iteration #  9     ecut=    40.00 Ry     beta= 0.70
     Davidson diagonalization with overlap
     ethr =  1.06E-08,  avg # of iterations =  2.1

     total cpu time spent up to now is        4.8 secs

     total energy              =    -190.71210059 Ry
     estimated scf accuracy    <       0.00000118 Ry

     iteration # 10     ecut=    40.00 Ry     beta= 0.70
     Davidson diagonalization with overlap
     ethr =  6.56E-09,  avg # of iterations =  2.4

     total cpu time spent up to now is        5.2 secs

     End of self-consistent calculation

          k = 0.0000 0.0000 0.0000 (  1291 PWs)   bands (ev):

    -8.4401  -8.4401  -8.4401  -8.3635  -8.3635  -6.2830   6.5141   6.5141
     6.5141

          k =-0.2500 0.2500-0.2500 (  1314 PWs)   bands (ev):

    -8.4804  -8.4293  -8.4293  -8.3631  -8.3631  -5.5924   2.2833   5.8238
     5.8238

          k = 0.5000-0.5000 0.5000 (  1308 PWs)   bands (ev):

    -8.5149  -8.4214  -8.4214  -8.3590  -8.3590  -4.5177  -0.2235   5.3577
     5.3577

          k = 0.0000 0.5000 0.0000 (  1299 PWs)   bands (ev):

    -8.5003  -8.4165  -8.4165  -8.3749  -8.3565  -5.3572   2.3243   4.7969
     4.7969

          k = 0.7500-0.2500 0.7500 (  1290 PWs)   bands (ev):

    -8.5263  -8.4106  -8.4052  -8.3739  -8.3554  -4.2277   0.1401   3.2167
     4.4474

          k = 0.5000 0.0000 0.5000 (  1312 PWs)   bands (ev):

    -8.5119  -8.4178  -8.4154  -8.3650  -8.3628  -4.6435   0.7708   3.0868
     5.2752

          k = 0.0000-1.0000 0.0000 (  1298 PWs)   bands (ev):

    -8.5464  -8.3916  -8.3916  -8.3886  -8.3495  -3.7745  -0.4094   3.8043
     3.8043

          k =-0.5000-1.0000 0.0000 (  1316 PWs)   bands (ev):

    -8.5329  -8.4104  -8.3960  -8.3743  -8.3587  -3.7147  -0.2273   2.9278
     3.1055

     highest occupied level (ev):     6.5141

!    total energy              =    -190.71210085 Ry
     estimated scf accuracy    <          5.1E-09 Ry

     The total energy is the sum of the following terms:
     one-electron contribution =    -112.22119223 Ry
     hartree contribution      =      71.63755876 Ry
     xc contribution           =     -57.10929633 Ry
     ewald contribution        =     -93.01917106 Ry

     convergence has been achieved in  10 iterations

     Writing all to output data dir ./SCRATCH/gallium arsenide.save/

     init_run     :      0.56s CPU      0.62s WALL (       1 calls)
     electrons    :      2.88s CPU      4.52s WALL (       1 calls)

     Called by init_run:
     wfcinit      :      0.06s CPU      0.07s WALL (       1 calls)
     potinit      :      0.02s CPU      0.02s WALL (       1 calls)
     hinit0       :      0.38s CPU      0.37s WALL (       1 calls)

     Called by electrons:
     c_bands      :      1.47s CPU      1.50s WALL (      11 calls)
     sum_band     :      0.80s CPU      1.67s WALL (      11 calls)
     v_of_rho     :      0.03s CPU      0.05s WALL (      11 calls)
     newd         :      0.61s CPU      1.40s WALL (      11 calls)
     mix_rho      :      0.05s CPU      0.03s WALL (      11 calls)

     Called by c_bands:
     init_us_2    :      0.12s CPU      0.05s WALL (     184 calls)
     init_us_2:cp :      0.12s CPU      0.05s WALL (     184 calls)
     cegterg      :      1.33s CPU      1.41s WALL (      88 calls)

     Called by *egterg:
     cdiaghg      :      0.02s CPU      0.02s WALL (     312 calls)
     h_psi        :      1.11s CPU      1.20s WALL (     328 calls)
     s_psi        :      0.06s CPU      0.06s WALL (     328 calls)
     g_psi        :      0.00s CPU      0.01s WALL (     232 calls)

     Called by h_psi:
     h_psi:calbec :      0.14s CPU      0.08s WALL (     328 calls)
     vloc_psi     :      0.84s CPU      1.06s WALL (     328 calls)
     add_vuspsi   :      0.12s CPU      0.06s WALL (     328 calls)

     General routines
     calbec       :      0.16s CPU      0.11s WALL (     416 calls)
     fft          :      0.08s CPU      0.07s WALL (      65 calls)
     ffts         :      0.00s CPU      0.01s WALL (      22 calls)
     fftw         :      0.89s CPU      1.07s WALL (    5274 calls)
     interpolate  :      0.03s CPU      0.02s WALL (      11 calls)


     PWSCF        :      3.52s CPU      5.25s WALL


   This run was terminated on:  12:54:44  11Jun2024            

=------------------------------------------------------------------------------=
   JOB DONE.
=------------------------------------------------------------------------------=
