
     Program PWSCF v.7.2 starts on 11Jun2024 at 12:54:53 

     This program is part of the open-source Quantum ESPRESSO suite
     for quantum simulation of materials; please cite
         "P. Giannozzi et al., J. Phys.:Condens. Matter 21 395502 (2009);
         "P. Giannozzi et al., J. Phys.:Condens. Matter 29 465901 (2017);
         "P. Giannozzi et al., J. Chem. Phys. 152 154105 (2020);
          URL http://www.quantum-espresso.org", 
     in publications or presentations arising from this work. More details at
     http://www.quantum-espresso.org/quote

     Serial version
     8339 MiB available memory on the printing compute node when the environment starts

     Waiting for input...
     Reading input from standard input

     Current dimensions of program PWSCF are:
     Max number of different atomic species (ntypx) = 10
     Max number of k-points (npk) =  40000
     Max angular momentum in pseudopotentials (lmaxx) =  4
     file Ga.pz-dn-rrkjus_psl.0.2.UPF: wavefunction(s)  4S 3D renormalized


     G-vector sticks info
     --------------------
     sticks:   dense  smooth     PW     G-vecs:    dense   smooth      PW
     Sum        1261     637    199                29603    10417    1837

     Using Slab Decomposition



     bravais-lattice index     =            2
     lattice parameter (alat)  =      10.6829  a.u.
     unit-cell volume          =     304.7951 (a.u.)^3
     number of atoms/cell      =            2
     number of atomic types    =            2
     number of electrons       =        18.00
     number of Kohn-Sham states=            9
     kinetic-energy cutoff     =      40.0000  Ry
     charge density cutoff     =     320.0000  Ry
     scf convergence threshold =      1.0E-08
     mixing beta               =       0.7000
     number of iterations used =            8  plain     mixing
     Exchange-correlation= LDA
                           (   1   1   0   0   0   0   0)

     celldm(1)=  10.682904  celldm(2)=   0.000000  celldm(3)=   0.000000
     celldm(4)=   0.000000  celldm(5)=   0.000000  celldm(6)=   0.000000

     crystal axes: (cart. coord. in units of alat)
               a(1) = (  -0.500000   0.000000   0.500000 )  
               a(2) = (   0.000000   0.500000   0.500000 )  
               a(3) = (  -0.500000   0.500000   0.000000 )  

     reciprocal axes: (cart. coord. in units 2 pi/alat)
               b(1) = ( -1.000000 -1.000000  1.000000 )  
               b(2) = (  1.000000  1.000000  1.000000 )  
               b(3) = ( -1.000000  1.000000 -1.000000 )  


     PseudoPot. # 1 for Ga read from file:
     /home/paolo/LABQSM/pseudo/Ga.pz-dn-rrkjus_psl.0.2.UPF
     MD5 check sum: 337958ae198bc3768054a43796a587a1
     Pseudo is Ultrasoft + core correction, Zval = 13.0
     Generated using "atomic" code by A. Dal Corso  v.5.0.2 svn rev. 9415
     Using radial grid of 1205 points,  6 beta functions with: 
                l(1) =   0
                l(2) =   0
                l(3) =   1
                l(4) =   1
                l(5) =   2
                l(6) =   2
     Q(r) pseudized with 0 coefficients 


     PseudoPot. # 2 for As read from file:
     /home/paolo/LABQSM/pseudo/As.pz-n-rrkjus_psl.0.2.UPF
     MD5 check sum: f80104272e9b817acfe428865afbdb7e
     Pseudo is Ultrasoft + core correction, Zval =  5.0
     Generated using "atomic" code by A. Dal Corso  v.5.0.2 svn rev. 9415
     Using radial grid of 1209 points,  4 beta functions with: 
                l(1) =   0
                l(2) =   0
                l(3) =   1
                l(4) =   1
     Q(r) pseudized with 0 coefficients 


     atomic species   valence    mass     pseudopotential
        Ga            13.00    69.72300     Ga( 1.00)
        As             5.00    74.92200     As( 1.00)

     24 Sym. Ops. (no inversion) found



   Cartesian axes

     site n.     atom                  positions (alat units)
         1           Ga  tau(   1) = (   0.0000000   0.0000000   0.0000000  )
         2           As  tau(   2) = (   0.2500000   0.2500000   0.2500000  )

     number of k points=    29
                       cart. coord. in units 2pi/alat
        k(    1) = (   0.0000000   0.0000000   0.0000000), wk =   0.0039062
        k(    2) = (  -0.1250000   0.1250000  -0.1250000), wk =   0.0312500
        k(    3) = (  -0.2500000   0.2500000  -0.2500000), wk =   0.0312500
        k(    4) = (  -0.3750000   0.3750000  -0.3750000), wk =   0.0312500
        k(    5) = (   0.5000000  -0.5000000   0.5000000), wk =   0.0156250
        k(    6) = (   0.0000000   0.2500000   0.0000000), wk =   0.0234375
        k(    7) = (  -0.1250000   0.3750000  -0.1250000), wk =   0.0937500
        k(    8) = (  -0.2500000   0.5000000  -0.2500000), wk =   0.0937500
        k(    9) = (   0.6250000  -0.3750000   0.6250000), wk =   0.0937500
        k(   10) = (   0.5000000  -0.2500000   0.5000000), wk =   0.0937500
        k(   11) = (   0.3750000  -0.1250000   0.3750000), wk =   0.0937500
        k(   12) = (   0.2500000   0.0000000   0.2500000), wk =   0.0468750
        k(   13) = (   0.0000000   0.5000000   0.0000000), wk =   0.0234375
        k(   14) = (  -0.1250000   0.6250000  -0.1250000), wk =   0.0937500
        k(   15) = (   0.7500000  -0.2500000   0.7500000), wk =   0.0937500
        k(   16) = (   0.6250000  -0.1250000   0.6250000), wk =   0.0937500
        k(   17) = (   0.5000000   0.0000000   0.5000000), wk =   0.0468750
        k(   18) = (   0.0000000   0.7500000   0.0000000), wk =   0.0234375
        k(   19) = (   0.8750000  -0.1250000   0.8750000), wk =   0.0937500
        k(   20) = (   0.7500000   0.0000000   0.7500000), wk =   0.0468750
        k(   21) = (   0.0000000  -1.0000000   0.0000000), wk =   0.0117188
        k(   22) = (  -0.2500000   0.5000000   0.0000000), wk =   0.0937500
        k(   23) = (   0.6250000  -0.3750000   0.8750000), wk =   0.1875000
        k(   24) = (   0.5000000  -0.2500000   0.7500000), wk =   0.0937500
        k(   25) = (   0.7500000  -0.2500000   1.0000000), wk =   0.0937500
        k(   26) = (   0.6250000  -0.1250000   0.8750000), wk =   0.1875000
        k(   27) = (   0.5000000   0.0000000   0.7500000), wk =   0.0937500
        k(   28) = (  -0.2500000  -1.0000000   0.0000000), wk =   0.0468750
        k(   29) = (  -0.5000000  -1.0000000   0.0000000), wk =   0.0234375

     Dense  grid:    29603 G-vectors     FFT dimensions: (  45,  45,  45)

     Smooth grid:    10417 G-vectors     FFT dimensions: (  32,  32,  32)

     Estimated max dynamical RAM per process >     112.54 MB

     Initial potential from superposition of free atoms

     starting charge      17.9975, renormalised to      18.0000
     Starting wfcs are   13 randomized atomic wfcs

     total cpu time spent up to now is        0.9 secs

     Self-consistent Calculation

     iteration #  1     ecut=    40.00 Ry     beta= 0.70
     Davidson diagonalization with overlap
     ethr =  1.00E-02,  avg # of iterations =  1.3

     Threshold (ethr) on eigenvalues was too large:
     Diagonalizing with lowered threshold

     Davidson diagonalization with overlap
     ethr =  3.71E-04,  avg # of iterations =  2.0

     total cpu time spent up to now is        2.3 secs

     total energy              =    -190.70891126 Ry
     estimated scf accuracy    <       0.05535567 Ry

     iteration #  2     ecut=    40.00 Ry     beta= 0.70
     Davidson diagonalization with overlap
     ethr =  3.08E-04,  avg # of iterations =  2.4

     total cpu time spent up to now is        3.2 secs

     total energy              =    -190.70648652 Ry
     estimated scf accuracy    <       0.07558858 Ry

     iteration #  3     ecut=    40.00 Ry     beta= 0.70
     Davidson diagonalization with overlap
     ethr =  3.08E-04,  avg # of iterations =  2.0

     total cpu time spent up to now is        4.0 secs

     total energy              =    -190.72301157 Ry
     estimated scf accuracy    <       0.01670501 Ry

     iteration #  4     ecut=    40.00 Ry     beta= 0.70
     Davidson diagonalization with overlap
     ethr =  9.28E-05,  avg # of iterations =  2.0

     total cpu time spent up to now is        4.8 secs

     total energy              =    -190.72585580 Ry
     estimated scf accuracy    <       0.00014070 Ry

     iteration #  5     ecut=    40.00 Ry     beta= 0.70
     Davidson diagonalization with overlap
     ethr =  7.82E-07,  avg # of iterations =  4.0

     total cpu time spent up to now is        5.7 secs

     total energy              =    -190.72601980 Ry
     estimated scf accuracy    <       0.00010245 Ry

     iteration #  6     ecut=    40.00 Ry     beta= 0.70
     Davidson diagonalization with overlap
     ethr =  5.69E-07,  avg # of iterations =  2.0

     total cpu time spent up to now is        6.5 secs

     total energy              =    -190.72589018 Ry
     estimated scf accuracy    <       0.00023252 Ry

     iteration #  7     ecut=    40.00 Ry     beta= 0.70
     Davidson diagonalization with overlap
     ethr =  5.69E-07,  avg # of iterations =  2.8

     total cpu time spent up to now is        7.3 secs

     total energy              =    -190.72593237 Ry
     estimated scf accuracy    <       0.00000098 Ry

     iteration #  8     ecut=    40.00 Ry     beta= 0.70
     Davidson diagonalization with overlap
     ethr =  5.46E-09,  avg # of iterations =  5.5

     total cpu time spent up to now is        8.4 secs

     total energy              =    -190.72593367 Ry
     estimated scf accuracy    <       0.00000112 Ry

     iteration #  9     ecut=    40.00 Ry     beta= 0.70
     Davidson diagonalization with overlap
     ethr =  5.46E-09,  avg # of iterations =  2.0

     total cpu time spent up to now is        9.2 secs

     total energy              =    -190.72593364 Ry
     estimated scf accuracy    <       0.00000044 Ry

     iteration # 10     ecut=    40.00 Ry     beta= 0.70
     Davidson diagonalization with overlap
     ethr =  2.43E-09,  avg # of iterations =  2.5

     total cpu time spent up to now is       10.0 secs

     total energy              =    -190.72593375 Ry
     estimated scf accuracy    <       0.00000006 Ry

     iteration # 11     ecut=    40.00 Ry     beta= 0.70
     Davidson diagonalization with overlap
     ethr =  3.29E-10,  avg # of iterations =  1.0

     total cpu time spent up to now is       10.7 secs

     total energy              =    -190.72593375 Ry
     estimated scf accuracy    <       0.00000002 Ry

     iteration # 12     ecut=    40.00 Ry     beta= 0.70
     Davidson diagonalization with overlap
     ethr =  1.05E-10,  avg # of iterations =  2.1

     total cpu time spent up to now is       11.5 secs

     End of self-consistent calculation

          k = 0.0000 0.0000 0.0000 (  1291 PWs)   bands (ev):

    -8.4281  -8.4281  -8.4281  -8.3498  -8.3498  -6.3285   6.4625   6.4625
     6.4625

          k =-0.1250 0.1250-0.1250 (  1309 PWs)   bands (ev):

    -8.4414  -8.4248  -8.4248  -8.3500  -8.3500  -6.1468   4.4216   6.2233
     6.2233

          k =-0.2500 0.2500-0.2500 (  1314 PWs)   bands (ev):

    -8.4700  -8.4172  -8.4172  -8.3495  -8.3495  -5.6390   2.2503   5.7781
     5.7781

          k =-0.3750 0.3750-0.3750 (  1299 PWs)   bands (ev):

    -8.4954  -8.4111  -8.4111  -8.3470  -8.3470  -4.9586   0.5056   5.4366
     5.4366

          k = 0.5000-0.5000 0.5000 (  1308 PWs)   bands (ev):

    -8.5056  -8.4092  -8.4092  -8.3455  -8.3455  -4.5709  -0.2461   5.3141
     5.3141

          k = 0.0000 0.2500 0.0000 (  1307 PWs)   bands (ev):

    -8.4488  -8.4215  -8.4215  -8.3530  -8.3478  -6.0863   4.3812   5.7966
     5.7966

          k =-0.1250 0.3750-0.1250 (  1315 PWs)   bands (ev):

    -8.4717  -8.4150  -8.4135  -8.3553  -8.3461  -5.6856   2.7521   5.2691
     5.3046

          k =-0.2500 0.5000-0.2500 (  1306 PWs)   bands (ev):

    -8.4949  -8.4097  -8.4067  -8.3541  -8.3443  -5.0457   1.0033   4.6584
     5.0125

          k = 0.6250-0.3750 0.6250 (  1303 PWs)   bands (ev):

    -8.5076  -8.4072  -8.4042  -8.3500  -8.3447  -4.4972  -0.0915   4.2248
     5.0040

          k = 0.5000-0.2500 0.5000 (  1306 PWs)   bands (ev):

    -8.5040  -8.4074  -8.4064  -8.3483  -8.3472  -4.6349   0.1624   4.0884
     5.2726

          k = 0.3750-0.1250 0.3750 (  1307 PWs)   bands (ev):

    -8.4853  -8.4126  -8.4106  -8.3520  -8.3471  -5.2766   1.5495   4.3234
     5.7358

          k = 0.2500 0.0000 0.2500 (  1311 PWs)   bands (ev):

    -8.4599  -8.4208  -8.4174  -8.3521  -8.3483  -5.8554   3.2448   5.0773
     6.1805

          k = 0.0000 0.5000 0.0000 (  1299 PWs)   bands (ev):

    -8.4902  -8.4044  -8.4044  -8.3613  -8.3428  -5.4046   2.2892   4.7580
     4.7580

          k =-0.1250 0.6250-0.1250 (  1299 PWs)   bands (ev):

    -8.5085  -8.3981  -8.3962  -8.3637  -8.3409  -4.8606   1.1186   4.0177
     4.4267

          k = 0.7500-0.2500 0.7500 (  1290 PWs)   bands (ev):

    -8.5171  -8.3984  -8.3930  -8.3604  -8.3418  -4.2828   0.1161   3.1858
     4.4093

          k = 0.6250-0.1250 0.6250 (  1297 PWs)   bands (ev):

    -8.5144  -8.4016  -8.3955  -8.3542  -8.3468  -4.1901  -0.0114   2.7683
     4.7072

          k = 0.5000 0.0000 0.5000 (  1312 PWs)   bands (ev):

    -8.5025  -8.4055  -8.4033  -8.3514  -8.3492  -4.6949   0.7427   3.0570
     5.2327

          k = 0.0000 0.7500 0.0000 (  1299 PWs)   bands (ev):

    -8.5245  -8.3867  -8.3867  -8.3709  -8.3379  -4.4471   0.4748   4.0254
     4.0254

          k = 0.8750-0.1250 0.8750 (  1301 PWs)   bands (ev):

    -8.5309  -8.3859  -8.3830  -8.3704  -8.3380  -3.9922  -0.1595   3.3191
     3.9396

          k = 0.7500 0.0000 0.7500 (  1296 PWs)   bands (ev):

    -8.5255  -8.3930  -8.3862  -8.3635  -8.3422  -3.8704  -0.2439   2.5625
     4.1895

          k = 0.0000-1.0000 0.0000 (  1298 PWs)   bands (ev):

    -8.5373  -8.3793  -8.3793  -8.3751  -8.3357  -3.8351  -0.4284   3.7685
     3.7685

          k =-0.2500 0.5000 0.0000 (  1307 PWs)   bands (ev):

    -8.4919  -8.4080  -8.4052  -8.3577  -8.3442  -5.2110   1.7025   4.0340
     5.1474

          k = 0.6250-0.3750 0.8750 (  1301 PWs)   bands (ev):

    -8.5077  -8.4046  -8.3984  -8.3563  -8.3444  -4.5814   0.4969   3.3697
     4.7087

          k = 0.5000-0.2500 0.7500 (  1286 PWs)   bands (ev):

    -8.5135  -8.4038  -8.3958  -8.3537  -8.3455  -4.2297  -0.0968   3.1918
     4.5064

          k = 0.7500-0.2500 1.0000 (  1314 PWs)   bands (ev):

    -8.5205  -8.3947  -8.3888  -8.3654  -8.3405  -4.3332   0.3390   3.3878
     3.9621

          k = 0.6250-0.1250 0.8750 (  1294 PWs)   bands (ev):

    -8.5226  -8.3972  -8.3862  -8.3615  -8.3433  -3.9378  -0.1456   2.7601
     3.7818

          k = 0.5000 0.0000 0.7500 (  1296 PWs)   bands (ev):

    -8.5174  -8.4011  -8.3897  -8.3573  -8.3460  -4.0776   0.0229   2.6150
     4.1259

          k =-0.2500-1.0000 0.0000 (  1298 PWs)   bands (ev):

    -8.5311  -8.3882  -8.3822  -8.3680  -8.3394  -3.8059  -0.3427   3.2934
     3.3835

          k =-0.5000-1.0000 0.0000 (  1316 PWs)   bands (ev):

    -8.5240  -8.3982  -8.3836  -8.3609  -8.3451  -3.7760  -0.2459   2.8958
     3.0774

     highest occupied level (ev):     6.4625

!    total energy              =    -190.72593374 Ry
     estimated scf accuracy    <          8.3E-09 Ry

     The total energy is the sum of the following terms:
     one-electron contribution =    -112.22694946 Ry
     hartree contribution      =      71.62000251 Ry
     xc contribution           =     -57.09981573 Ry
     ewald contribution        =     -93.01917106 Ry

     convergence has been achieved in  12 iterations

     Writing all to output data dir ./SCRATCH/gallium arsenide.save/

     init_run     :      0.69s CPU      0.82s WALL (       1 calls)
     electrons    :      8.78s CPU     10.55s WALL (       1 calls)

     Called by init_run:
     wfcinit      :      0.28s CPU      0.27s WALL (       1 calls)
     potinit      :      0.02s CPU      0.02s WALL (       1 calls)
     hinit0       :      0.36s CPU      0.37s WALL (       1 calls)

     Called by electrons:
     c_bands      :      6.17s CPU      6.27s WALL (      13 calls)
     sum_band     :      1.83s CPU      2.69s WALL (      13 calls)
     v_of_rho     :      0.08s CPU      0.06s WALL (      13 calls)
     newd         :      0.64s CPU      1.61s WALL (      13 calls)
     mix_rho      :      0.08s CPU      0.04s WALL (      13 calls)

     Called by c_bands:
     init_us_2    :      0.17s CPU      0.21s WALL (     783 calls)
     init_us_2:cp :      0.17s CPU      0.21s WALL (     783 calls)
     cegterg      :      5.91s CPU      5.90s WALL (     377 calls)

     Called by *egterg:
     cdiaghg      :      0.06s CPU      0.07s WALL (    1269 calls)
     h_psi        :      4.81s CPU      5.02s WALL (    1327 calls)
     s_psi        :      0.22s CPU      0.24s WALL (    1327 calls)
     g_psi        :      0.02s CPU      0.02s WALL (     921 calls)

     Called by h_psi:
     h_psi:calbec :      0.39s CPU      0.33s WALL (    1327 calls)
     vloc_psi     :      4.19s CPU      4.42s WALL (    1327 calls)
     add_vuspsi   :      0.23s CPU      0.24s WALL (    1327 calls)

     General routines
     calbec       :      0.52s CPU      0.44s WALL (    1704 calls)
     fft          :      0.12s CPU      0.08s WALL (      77 calls)
     ffts         :      0.02s CPU      0.01s WALL (      26 calls)
     fftw         :      4.41s CPU      4.49s WALL (   21967 calls)
     interpolate  :      0.02s CPU      0.02s WALL (      13 calls)


     PWSCF        :      9.56s CPU     11.48s WALL


   This run was terminated on:  12:55: 4  11Jun2024            

=------------------------------------------------------------------------------=
   JOB DONE.
=------------------------------------------------------------------------------=
