
     Program PWSCF v.7.2 starts on 25May2024 at 12:13:33 

     This program is part of the open-source Quantum ESPRESSO suite
     for quantum simulation of materials; please cite
         "P. Giannozzi et al., J. Phys.:Condens. Matter 21 395502 (2009);
         "P. Giannozzi et al., J. Phys.:Condens. Matter 29 465901 (2017);
         "P. Giannozzi et al., J. Chem. Phys. 152 154105 (2020);
          URL http://www.quantum-espresso.org", 
     in publications or presentations arising from this work. More details at
     http://www.quantum-espresso.org/quote

     Serial version
     8176 MiB available memory on the printing compute node when the environment starts

     Waiting for input...
     Reading input from standard input

     Current dimensions of program PWSCF are:
     Max number of different atomic species (ntypx) = 10
     Max number of k-points (npk) =  40000
     Max angular momentum in pseudopotentials (lmaxx) =  4


     G-vector sticks info
     --------------------
     sticks:   dense  smooth     PW     G-vecs:    dense   smooth      PW
     Sum         955     955    283                19195    19195    3119

     Using Slab Decomposition



     bravais-lattice index     =            2
     lattice parameter (alat)  =      10.6829  a.u.
     unit-cell volume          =     304.7951 (a.u.)^3
     number of atoms/cell      =            2
     number of atomic types    =            2
     number of electrons       =         8.00
     number of Kohn-Sham states=            4
     kinetic-energy cutoff     =      60.0000  Ry
     charge density cutoff     =     240.0000  Ry
     scf convergence threshold =      1.0E-08
     mixing beta               =       0.7000
     number of iterations used =            8  plain     mixing
     Exchange-correlation= SLA  PZ   NOGX NOGC
                           (   1   1   0   0   0   0   0)

     celldm(1)=  10.682904  celldm(2)=   0.000000  celldm(3)=   0.000000
     celldm(4)=   0.000000  celldm(5)=   0.000000  celldm(6)=   0.000000

     crystal axes: (cart. coord. in units of alat)
               a(1) = (  -0.500000   0.000000   0.500000 )  
               a(2) = (   0.000000   0.500000   0.500000 )  
               a(3) = (  -0.500000   0.500000   0.000000 )  

     reciprocal axes: (cart. coord. in units 2 pi/alat)
               b(1) = ( -1.000000 -1.000000  1.000000 )  
               b(2) = (  1.000000  1.000000  1.000000 )  
               b(3) = ( -1.000000  1.000000 -1.000000 )  


     PseudoPot. # 1 for Ga read from file:
     /home/paolo/project_labqsm/pseudopotentials/Ga.pz-bhs.UPF
     MD5 check sum: 09b06f4702dea281feaf053846378b49
     Pseudo is Norm-conserving, Zval =  3.0
     Generated by new atomic code, or converted to UPF format
     Using radial grid of  523 points,  2 beta functions with: 
                l(1) =   0
                l(2) =   1

     PseudoPot. # 2 for As read from file:
     /home/paolo/project_labqsm/pseudopotentials/As.pz-bhs.UPF
     MD5 check sum: d67708448008dff3ec15a9356ed645c7
     Pseudo is Norm-conserving, Zval =  5.0
     Generated by new atomic code, or converted to UPF format
     Using radial grid of  525 points,  2 beta functions with: 
                l(1) =   0
                l(2) =   1

     atomic species   valence    mass     pseudopotential
        Ga             3.00    69.72300     Ga( 1.00)
        As             5.00    74.92200     As( 1.00)

     24 Sym. Ops. (no inversion) found



   Cartesian axes

     site n.     atom                  positions (alat units)
         1           Ga  tau(   1) = (   0.0000000   0.0000000   0.0000000  )
         2           As  tau(   2) = (   0.2500000   0.2500000   0.2500000  )

     number of k points=     8
                       cart. coord. in units 2pi/alat
        k(    1) = (   0.0000000   0.0000000   0.0000000), wk =   0.0312500
        k(    2) = (  -0.2500000   0.2500000  -0.2500000), wk =   0.2500000
        k(    3) = (   0.5000000  -0.5000000   0.5000000), wk =   0.1250000
        k(    4) = (   0.0000000   0.5000000   0.0000000), wk =   0.1875000
        k(    5) = (   0.7500000  -0.2500000   0.7500000), wk =   0.7500000
        k(    6) = (   0.5000000   0.0000000   0.5000000), wk =   0.3750000
        k(    7) = (   0.0000000  -1.0000000   0.0000000), wk =   0.0937500
        k(    8) = (  -0.5000000  -1.0000000   0.0000000), wk =   0.1875000

     Dense  grid:    19195 G-vectors     FFT dimensions: (  40,  40,  40)

     Estimated max dynamical RAM per process >      15.37 MB

     Initial potential from superposition of free atoms

     starting charge       7.9979, renormalised to       8.0000
     Starting wfcs are    8 randomized atomic wfcs

     total cpu time spent up to now is        0.2 secs

     Self-consistent Calculation

     iteration #  1     ecut=    60.00 Ry     beta= 0.70
     Davidson diagonalization with overlap
     ethr =  1.00E-02,  avg # of iterations =  1.5

     Threshold (ethr) on eigenvalues was too large:
     Diagonalizing with lowered threshold

     Davidson diagonalization with overlap
     ethr =  5.32E-04,  avg # of iterations =  2.8

     total cpu time spent up to now is        0.4 secs

     total energy              =     -17.30331792 Ry
     estimated scf accuracy    <       0.04659529 Ry

     iteration #  2     ecut=    60.00 Ry     beta= 0.70
     Davidson diagonalization with overlap
     ethr =  5.82E-04,  avg # of iterations =  2.0

     total cpu time spent up to now is        0.5 secs

     total energy              =     -17.31068630 Ry
     estimated scf accuracy    <       0.00308967 Ry

     iteration #  3     ecut=    60.00 Ry     beta= 0.70
     Davidson diagonalization with overlap
     ethr =  3.86E-05,  avg # of iterations =  3.1

     total cpu time spent up to now is        0.7 secs

     total energy              =     -17.31142082 Ry
     estimated scf accuracy    <       0.00066392 Ry

     iteration #  4     ecut=    60.00 Ry     beta= 0.70
     Davidson diagonalization with overlap
     ethr =  8.30E-06,  avg # of iterations =  3.8

     total cpu time spent up to now is        0.9 secs

     total energy              =     -17.31156225 Ry
     estimated scf accuracy    <       0.00042266 Ry

     iteration #  5     ecut=    60.00 Ry     beta= 0.70
     Davidson diagonalization with overlap
     ethr =  5.28E-06,  avg # of iterations =  3.5

     total cpu time spent up to now is        1.0 secs

     total energy              =     -17.31164476 Ry
     estimated scf accuracy    <       0.00027431 Ry

     iteration #  6     ecut=    60.00 Ry     beta= 0.70
     Davidson diagonalization with overlap
     ethr =  3.43E-06,  avg # of iterations =  2.0

     total cpu time spent up to now is        1.1 secs

     total energy              =     -17.31167903 Ry
     estimated scf accuracy    <       0.00000592 Ry

     iteration #  7     ecut=    60.00 Ry     beta= 0.70
     Davidson diagonalization with overlap
     ethr =  7.40E-08,  avg # of iterations =  5.9

     total cpu time spent up to now is        1.3 secs

     total energy              =     -17.31168503 Ry
     estimated scf accuracy    <       0.00000020 Ry

     iteration #  8     ecut=    60.00 Ry     beta= 0.70
     Davidson diagonalization with overlap
     ethr =  2.56E-09,  avg # of iterations =  5.0

     total cpu time spent up to now is        1.5 secs

     total energy              =     -17.31168522 Ry
     estimated scf accuracy    <       0.00000005 Ry

     iteration #  9     ecut=    60.00 Ry     beta= 0.70
     Davidson diagonalization with overlap
     ethr =  6.78E-10,  avg # of iterations =  3.4

     total cpu time spent up to now is        1.7 secs

     total energy              =     -17.31168518 Ry
     estimated scf accuracy    <       0.00000007 Ry

     iteration # 10     ecut=    60.00 Ry     beta= 0.70
     Davidson diagonalization with overlap
     ethr =  6.78E-10,  avg # of iterations =  2.9

     total cpu time spent up to now is        1.8 secs

     End of self-consistent calculation

          k = 0.0000 0.0000 0.0000 (  2421 PWs)   bands (ev):

    -7.8075   4.6375   4.6375   4.6375

          k =-0.2500 0.2500-0.2500 (  2406 PWs)   bands (ev):

    -7.2219   0.5180   4.0020   4.0020

          k = 0.5000-0.5000 0.5000 (  2392 PWs)   bands (ev):

    -6.3058  -1.9256   3.5682   3.5682

          k = 0.0000 0.5000 0.0000 (  2413 PWs)   bands (ev):

    -7.0154   0.5544   3.0132   3.0132

          k = 0.7500-0.2500 0.7500 (  2395 PWs)   bands (ev):

    -6.0453  -1.5677   1.4544   2.6852

          k = 0.5000 0.0000 0.5000 (  2385 PWs)   bands (ev):

    -6.4039  -0.9638   1.3230   3.4848

          k = 0.0000-1.0000 0.0000 (  2402 PWs)   bands (ev):

    -5.6528  -2.0913   2.0654   2.0654

          k =-0.5000-1.0000 0.0000 (  2400 PWs)   bands (ev):

    -5.6115  -1.8860   1.1335   1.3792

     highest occupied level (ev):     4.6375

!    total energy              =     -17.31168520 Ry
     estimated scf accuracy    <          8.4E-09 Ry

     The total energy is the sum of the following terms:
     one-electron contribution =       2.72298196 Ry
     hartree contribution      =       1.58577126 Ry
     xc contribution           =      -4.77638724 Ry
     ewald contribution        =     -16.84405118 Ry

     convergence has been achieved in  10 iterations

     Writing all to output data dir ./SCRATCH/gallium_arsenide.save/

     init_run     :      0.14s CPU      0.15s WALL (       1 calls)
     electrons    :      1.61s CPU      1.64s WALL (       1 calls)

     Called by init_run:
     wfcinit      :      0.08s CPU      0.08s WALL (       1 calls)
     potinit      :      0.02s CPU      0.02s WALL (       1 calls)
     hinit0       :      0.05s CPU      0.03s WALL (       1 calls)

     Called by electrons:
     c_bands      :      1.31s CPU      1.35s WALL (      11 calls)
     sum_band     :      0.22s CPU      0.23s WALL (      11 calls)
     v_of_rho     :      0.05s CPU      0.04s WALL (      11 calls)
     mix_rho      :      0.03s CPU      0.03s WALL (      11 calls)

     Called by c_bands:
     init_us_2    :      0.02s CPU      0.04s WALL (     184 calls)
     init_us_2:cp :      0.02s CPU      0.04s WALL (     184 calls)
     cegterg      :      1.27s CPU      1.30s WALL (      88 calls)

     Called by *egterg:
     cdiaghg      :      0.00s CPU      0.01s WALL (     366 calls)
     h_psi        :      1.27s CPU      1.27s WALL (     382 calls)
     g_psi        :      0.02s CPU      0.01s WALL (     286 calls)

     Called by h_psi:
     h_psi:calbec :      0.03s CPU      0.03s WALL (     382 calls)
     vloc_psi     :      1.20s CPU      1.22s WALL (     382 calls)
     add_vuspsi   :      0.00s CPU      0.02s WALL (     382 calls)

     General routines
     calbec       :      0.03s CPU      0.03s WALL (     382 calls)
     fft          :      0.03s CPU      0.03s WALL (      33 calls)
     ffts         :      0.03s CPU      0.01s WALL (      11 calls)
     fftw         :      1.30s CPU      1.27s WALL (    2728 calls)


     PWSCF        :      1.77s CPU      1.82s WALL


   This run was terminated on:  12:13:35  25May2024            

=------------------------------------------------------------------------------=
   JOB DONE.
=------------------------------------------------------------------------------=
