
     Program PWSCF v.7.2 starts on 25May2024 at 12:13:35 

     This program is part of the open-source Quantum ESPRESSO suite
     for quantum simulation of materials; please cite
         "P. Giannozzi et al., J. Phys.:Condens. Matter 21 395502 (2009);
         "P. Giannozzi et al., J. Phys.:Condens. Matter 29 465901 (2017);
         "P. Giannozzi et al., J. Chem. Phys. 152 154105 (2020);
          URL http://www.quantum-espresso.org", 
     in publications or presentations arising from this work. More details at
     http://www.quantum-espresso.org/quote

     Serial version
     8179 MiB available memory on the printing compute node when the environment starts

     Waiting for input...
     Reading input from standard input

     Current dimensions of program PWSCF are:
     Max number of different atomic species (ntypx) = 10
     Max number of k-points (npk) =  40000
     Max angular momentum in pseudopotentials (lmaxx) =  4


     G-vector sticks info
     --------------------
     sticks:   dense  smooth     PW     G-vecs:    dense   smooth      PW
     Sum         955     955    283                19195    19195    3119

     Using Slab Decomposition



     bravais-lattice index     =            2
     lattice parameter (alat)  =      10.6829  a.u.
     unit-cell volume          =     304.7951 (a.u.)^3
     number of atoms/cell      =            2
     number of atomic types    =            2
     number of electrons       =         8.00
     number of Kohn-Sham states=            4
     kinetic-energy cutoff     =      60.0000  Ry
     charge density cutoff     =     240.0000  Ry
     scf convergence threshold =      1.0E-08
     mixing beta               =       0.7000
     number of iterations used =            8  plain     mixing
     Exchange-correlation= SLA  PZ   NOGX NOGC
                           (   1   1   0   0   0   0   0)

     celldm(1)=  10.682904  celldm(2)=   0.000000  celldm(3)=   0.000000
     celldm(4)=   0.000000  celldm(5)=   0.000000  celldm(6)=   0.000000

     crystal axes: (cart. coord. in units of alat)
               a(1) = (  -0.500000   0.000000   0.500000 )  
               a(2) = (   0.000000   0.500000   0.500000 )  
               a(3) = (  -0.500000   0.500000   0.000000 )  

     reciprocal axes: (cart. coord. in units 2 pi/alat)
               b(1) = ( -1.000000 -1.000000  1.000000 )  
               b(2) = (  1.000000  1.000000  1.000000 )  
               b(3) = ( -1.000000  1.000000 -1.000000 )  


     PseudoPot. # 1 for Ga read from file:
     /home/paolo/project_labqsm/pseudopotentials/Ga.pz-bhs.UPF
     MD5 check sum: 09b06f4702dea281feaf053846378b49
     Pseudo is Norm-conserving, Zval =  3.0
     Generated by new atomic code, or converted to UPF format
     Using radial grid of  523 points,  2 beta functions with: 
                l(1) =   0
                l(2) =   1

     PseudoPot. # 2 for As read from file:
     /home/paolo/project_labqsm/pseudopotentials/As.pz-bhs.UPF
     MD5 check sum: d67708448008dff3ec15a9356ed645c7
     Pseudo is Norm-conserving, Zval =  5.0
     Generated by new atomic code, or converted to UPF format
     Using radial grid of  525 points,  2 beta functions with: 
                l(1) =   0
                l(2) =   1

     atomic species   valence    mass     pseudopotential
        Ga             3.00    69.72300     Ga( 1.00)
        As             5.00    74.92200     As( 1.00)

     24 Sym. Ops. (no inversion) found



   Cartesian axes

     site n.     atom                  positions (alat units)
         1           Ga  tau(   1) = (   0.0000000   0.0000000   0.0000000  )
         2           As  tau(   2) = (   0.2500000   0.2500000   0.2500000  )

     number of k points=    16
                       cart. coord. in units 2pi/alat
        k(    1) = (   0.0000000   0.0000000   0.0000000), wk =   0.0092593
        k(    2) = (  -0.1666667   0.1666667  -0.1666667), wk =   0.0740741
        k(    3) = (  -0.3333333   0.3333333  -0.3333333), wk =   0.0740741
        k(    4) = (   0.5000000  -0.5000000   0.5000000), wk =   0.0370370
        k(    5) = (   0.0000000   0.3333333   0.0000000), wk =   0.0555556
        k(    6) = (  -0.1666667   0.5000000  -0.1666667), wk =   0.2222222
        k(    7) = (   0.6666667  -0.3333333   0.6666667), wk =   0.2222222
        k(    8) = (   0.5000000  -0.1666667   0.5000000), wk =   0.2222222
        k(    9) = (   0.3333333   0.0000000   0.3333333), wk =   0.1111111
        k(   10) = (   0.0000000   0.6666667   0.0000000), wk =   0.0555556
        k(   11) = (   0.8333333  -0.1666667   0.8333333), wk =   0.2222222
        k(   12) = (   0.6666667  -0.0000000   0.6666667), wk =   0.1111111
        k(   13) = (   0.0000000  -1.0000000   0.0000000), wk =   0.0277778
        k(   14) = (   0.6666667  -0.3333333   1.0000000), wk =   0.2222222
        k(   15) = (   0.5000000  -0.1666667   0.8333333), wk =   0.2222222
        k(   16) = (  -0.3333333  -1.0000000   0.0000000), wk =   0.1111111

     Dense  grid:    19195 G-vectors     FFT dimensions: (  40,  40,  40)

     Estimated max dynamical RAM per process >      16.54 MB

     Initial potential from superposition of free atoms

     starting charge       7.9979, renormalised to       8.0000
     Starting wfcs are    8 randomized atomic wfcs

     total cpu time spent up to now is        0.2 secs

     Self-consistent Calculation

     iteration #  1     ecut=    60.00 Ry     beta= 0.70
     Davidson diagonalization with overlap
     ethr =  1.00E-02,  avg # of iterations =  1.4

     Threshold (ethr) on eigenvalues was too large:
     Diagonalizing with lowered threshold

     Davidson diagonalization with overlap
     ethr =  4.75E-04,  avg # of iterations =  3.2

     total cpu time spent up to now is        0.7 secs

     total energy              =     -17.31568080 Ry
     estimated scf accuracy    <       0.04227069 Ry

     iteration #  2     ecut=    60.00 Ry     beta= 0.70
     Davidson diagonalization with overlap
     ethr =  5.28E-04,  avg # of iterations =  2.0

     total cpu time spent up to now is        1.0 secs

     total energy              =     -17.32218937 Ry
     estimated scf accuracy    <       0.00280840 Ry

     iteration #  3     ecut=    60.00 Ry     beta= 0.70
     Davidson diagonalization with overlap
     ethr =  3.51E-05,  avg # of iterations =  2.8

     total cpu time spent up to now is        1.3 secs

     total energy              =     -17.32276503 Ry
     estimated scf accuracy    <       0.00038277 Ry

     iteration #  4     ecut=    60.00 Ry     beta= 0.70
     Davidson diagonalization with overlap
     ethr =  4.78E-06,  avg # of iterations =  3.6

     total cpu time spent up to now is        1.6 secs

     total energy              =     -17.32300895 Ry
     estimated scf accuracy    <       0.00010725 Ry

     iteration #  5     ecut=    60.00 Ry     beta= 0.70
     Davidson diagonalization with overlap
     ethr =  1.34E-06,  avg # of iterations =  2.8

     total cpu time spent up to now is        1.9 secs

     total energy              =     -17.32299007 Ry
     estimated scf accuracy    <       0.00013111 Ry

     iteration #  6     ecut=    60.00 Ry     beta= 0.70
     Davidson diagonalization with overlap
     ethr =  1.34E-06,  avg # of iterations =  1.3

     total cpu time spent up to now is        2.1 secs

     total energy              =     -17.32299121 Ry
     estimated scf accuracy    <       0.00006153 Ry

     iteration #  7     ecut=    60.00 Ry     beta= 0.70
     Davidson diagonalization with overlap
     ethr =  7.69E-07,  avg # of iterations =  1.0

     total cpu time spent up to now is        2.3 secs

     total energy              =     -17.32299104 Ry
     estimated scf accuracy    <       0.00005168 Ry

     iteration #  8     ecut=    60.00 Ry     beta= 0.70
     Davidson diagonalization with overlap
     ethr =  6.46E-07,  avg # of iterations =  1.0

     total cpu time spent up to now is        2.5 secs

     total energy              =     -17.32299180 Ry
     estimated scf accuracy    <       0.00004557 Ry

     iteration #  9     ecut=    60.00 Ry     beta= 0.70
     Davidson diagonalization with overlap
     ethr =  5.70E-07,  avg # of iterations =  1.0

     total cpu time spent up to now is        2.6 secs

     total energy              =     -17.32299171 Ry
     estimated scf accuracy    <       0.00004380 Ry

     iteration # 10     ecut=    60.00 Ry     beta= 0.70
     Davidson diagonalization with overlap
     ethr =  5.47E-07,  avg # of iterations =  1.0

     total cpu time spent up to now is        2.8 secs

     total energy              =     -17.32299003 Ry
     estimated scf accuracy    <       0.00004090 Ry

     iteration # 11     ecut=    60.00 Ry     beta= 0.70
     Davidson diagonalization with overlap
     ethr =  5.11E-07,  avg # of iterations =  1.0

     total cpu time spent up to now is        3.0 secs

     total energy              =     -17.32298946 Ry
     estimated scf accuracy    <       0.00003524 Ry

     iteration # 12     ecut=    60.00 Ry     beta= 0.70
     Davidson diagonalization with overlap
     ethr =  4.40E-07,  avg # of iterations =  1.0

     total cpu time spent up to now is        3.2 secs

     total energy              =     -17.32298811 Ry
     estimated scf accuracy    <       0.00003222 Ry

     iteration # 13     ecut=    60.00 Ry     beta= 0.70
     Davidson diagonalization with overlap
     ethr =  4.03E-07,  avg # of iterations =  1.0

     total cpu time spent up to now is        3.4 secs

     total energy              =     -17.32297565 Ry
     estimated scf accuracy    <       0.00002764 Ry

     iteration # 14     ecut=    60.00 Ry     beta= 0.70
     Davidson diagonalization with overlap
     ethr =  3.46E-07,  avg # of iterations =  2.0

     total cpu time spent up to now is        3.7 secs

     total energy              =     -17.32297838 Ry
     estimated scf accuracy    <       0.00000221 Ry

     iteration # 15     ecut=    60.00 Ry     beta= 0.70
     Davidson diagonalization with overlap
     ethr =  2.76E-08,  avg # of iterations =  4.9

     total cpu time spent up to now is        4.0 secs

     total energy              =     -17.32297977 Ry
     estimated scf accuracy    <       0.00000011 Ry

     iteration # 16     ecut=    60.00 Ry     beta= 0.70
     Davidson diagonalization with overlap
     ethr =  1.37E-09,  avg # of iterations =  5.8

     total cpu time spent up to now is        4.4 secs

     total energy              =     -17.32297987 Ry
     estimated scf accuracy    <       0.00000008 Ry

     iteration # 17     ecut=    60.00 Ry     beta= 0.70
     Davidson diagonalization with overlap
     ethr =  1.06E-09,  avg # of iterations =  1.1

     total cpu time spent up to now is        4.6 secs

     total energy              =     -17.32297997 Ry
     estimated scf accuracy    <       0.00000008 Ry

     iteration # 18     ecut=    60.00 Ry     beta= 0.70
     Davidson diagonalization with overlap
     ethr =  1.04E-09,  avg # of iterations =  2.1

     total cpu time spent up to now is        4.9 secs

     total energy              =     -17.32298003 Ry
     estimated scf accuracy    <       0.00000034 Ry

     iteration # 19     ecut=    60.00 Ry     beta= 0.70
     Davidson diagonalization with overlap
     ethr =  1.04E-09,  avg # of iterations =  1.4

     total cpu time spent up to now is        5.1 secs

     total energy              =     -17.32298004 Ry
     estimated scf accuracy    <       0.00000047 Ry

     iteration # 20     ecut=    60.00 Ry     beta= 0.70
     Davidson diagonalization with overlap
     ethr =  1.04E-09,  avg # of iterations =  1.0

     total cpu time spent up to now is        5.3 secs

     total energy              =     -17.32298006 Ry
     estimated scf accuracy    <       0.00000050 Ry

     iteration # 21     ecut=    60.00 Ry     beta= 0.70
     Davidson diagonalization with overlap
     ethr =  1.04E-09,  avg # of iterations =  1.0

     total cpu time spent up to now is        5.5 secs

     total energy              =     -17.32297986 Ry
     estimated scf accuracy    <       0.00000055 Ry

     iteration # 22     ecut=    60.00 Ry     beta= 0.70
     Davidson diagonalization with overlap
     ethr =  1.04E-09,  avg # of iterations =  2.1

     total cpu time spent up to now is        5.7 secs

     total energy              =     -17.32297986 Ry
     estimated scf accuracy    <       0.00000017 Ry

     iteration # 23     ecut=    60.00 Ry     beta= 0.70
     Davidson diagonalization with overlap
     ethr =  1.04E-09,  avg # of iterations =  1.8

     total cpu time spent up to now is        6.0 secs

     total energy              =     -17.32297981 Ry
     estimated scf accuracy    <       0.00000010 Ry

     iteration # 24     ecut=    60.00 Ry     beta= 0.70
     Davidson diagonalization with overlap
     ethr =  1.04E-09,  avg # of iterations =  2.6

     total cpu time spent up to now is        6.2 secs

     total energy              =     -17.32297984 Ry
     estimated scf accuracy    <       0.00000001 Ry

     iteration # 25     ecut=    60.00 Ry     beta= 0.70
     Davidson diagonalization with overlap
     ethr =  1.57E-10,  avg # of iterations =  2.4

     total cpu time spent up to now is        6.5 secs

     End of self-consistent calculation

          k = 0.0000 0.0000 0.0000 (  2421 PWs)   bands (ev):

    -7.8459   4.5940   4.5940   4.5940

          k =-0.1667 0.1667-0.1667 (  2397 PWs)   bands (ev):

    -7.5777   1.9227   4.2407   4.2407

          k =-0.3333 0.3333-0.3333 (  2406 PWs)   bands (ev):

    -6.8750  -0.7348   3.7312   3.7312

          k = 0.5000-0.5000 0.5000 (  2392 PWs)   bands (ev):

    -6.3533  -1.9452   3.5310   3.5310

          k = 0.0000 0.3333 0.0000 (  2405 PWs)   bands (ev):

    -7.4864   1.9197   3.6302   3.6302

          k =-0.1667 0.5000-0.1667 (  2386 PWs)   bands (ev):

    -6.9133  -0.1109   2.7998   3.1011

          k = 0.6667-0.3333 0.6667 (  2390 PWs)   bands (ev):

    -6.2351  -1.7024   2.0249   3.0426

          k = 0.5000-0.1667 0.5000 (  2397 PWs)   bands (ev):

    -6.4267  -1.3058   1.8276   3.4685

          k = 0.3333 0.0000 0.3333 (  2391 PWs)   bands (ev):

    -7.1553   0.5066   2.5644   4.1118

          k = 0.0000 0.6667 0.0000 (  2397 PWs)   bands (ev):

    -6.5114  -0.7271   2.4669   2.4669

          k = 0.8333-0.1667 0.8333 (  2398 PWs)   bands (ev):

    -5.9233  -1.7198   1.4050   2.3231

          k = 0.6667-0.0000 0.6667 (  2381 PWs)   bands (ev):

    -5.8759  -1.7489   0.6927   2.7352

          k = 0.0000-1.0000 0.0000 (  2402 PWs)   bands (ev):

    -5.7064  -2.1086   2.0350   2.0350

          k = 0.6667-0.3333 1.0000 (  2391 PWs)   bands (ev):

    -6.3007  -1.1436   1.4585   2.6247

          k = 0.5000-0.1667 0.8333 (  2384 PWs)   bands (ev):

    -5.8753  -1.7843   1.0024   2.2225

          k =-0.3333-1.0000 0.0000 (  2402 PWs)   bands (ev):

    -5.6760  -1.9600   1.3115   1.4982

     highest occupied level (ev):     4.5940

!    total energy              =     -17.32297985 Ry
     estimated scf accuracy    <          1.7E-09 Ry

     The total energy is the sum of the following terms:
     one-electron contribution =       2.72563800 Ry
     hartree contribution      =       1.56379365 Ry
     xc contribution           =      -4.76836032 Ry
     ewald contribution        =     -16.84405118 Ry

     convergence has been achieved in  25 iterations

     Writing all to output data dir ./SCRATCH/gallium_arsenide.save/

     init_run     :      0.20s CPU      0.23s WALL (       1 calls)
     electrons    :      6.20s CPU      6.28s WALL (       1 calls)

     Called by init_run:
     wfcinit      :      0.16s CPU      0.17s WALL (       1 calls)
     potinit      :      0.00s CPU      0.01s WALL (       1 calls)
     hinit0       :      0.03s CPU      0.03s WALL (       1 calls)

     Called by electrons:
     c_bands      :      5.06s CPU      5.11s WALL (      26 calls)
     sum_band     :      1.05s CPU      1.00s WALL (      26 calls)
     v_of_rho     :      0.06s CPU      0.08s WALL (      26 calls)
     mix_rho      :      0.02s CPU      0.08s WALL (      26 calls)

     Called by c_bands:
     init_us_2    :      0.17s CPU      0.19s WALL (     848 calls)
     init_us_2:cp :      0.17s CPU      0.19s WALL (     848 calls)
     cegterg      :      4.91s CPU      4.90s WALL (     416 calls)

     Called by *egterg:
     cdiaghg      :      0.03s CPU      0.02s WALL (    1234 calls)
     h_psi        :      4.72s CPU      4.70s WALL (    1266 calls)
     g_psi        :      0.03s CPU      0.02s WALL (     834 calls)

     Called by h_psi:
     h_psi:calbec :      0.17s CPU      0.10s WALL (    1266 calls)
     vloc_psi     :      4.42s CPU      4.51s WALL (    1266 calls)
     add_vuspsi   :      0.09s CPU      0.07s WALL (    1266 calls)

     General routines
     calbec       :      0.16s CPU      0.09s WALL (    1266 calls)
     fft          :      0.03s CPU      0.06s WALL (      78 calls)
     ffts         :      0.03s CPU      0.02s WALL (      26 calls)
     fftw         :      4.88s CPU      4.86s WALL (   10472 calls)


     PWSCF        :      6.42s CPU      6.53s WALL


   This run was terminated on:  12:13:41  25May2024            

=------------------------------------------------------------------------------=
   JOB DONE.
=------------------------------------------------------------------------------=
