
     Program PWSCF v.7.2 starts on 25May2024 at 12:13:49 

     This program is part of the open-source Quantum ESPRESSO suite
     for quantum simulation of materials; please cite
         "P. Giannozzi et al., J. Phys.:Condens. Matter 21 395502 (2009);
         "P. Giannozzi et al., J. Phys.:Condens. Matter 29 465901 (2017);
         "P. Giannozzi et al., J. Chem. Phys. 152 154105 (2020);
          URL http://www.quantum-espresso.org", 
     in publications or presentations arising from this work. More details at
     http://www.quantum-espresso.org/quote

     Serial version
     8166 MiB available memory on the printing compute node when the environment starts

     Waiting for input...
     Reading input from standard input

     Current dimensions of program PWSCF are:
     Max number of different atomic species (ntypx) = 10
     Max number of k-points (npk) =  40000
     Max angular momentum in pseudopotentials (lmaxx) =  4


     G-vector sticks info
     --------------------
     sticks:   dense  smooth     PW     G-vecs:    dense   smooth      PW
     Sum         955     955    283                19195    19195    3143

     Using Slab Decomposition



     bravais-lattice index     =            2
     lattice parameter (alat)  =      10.6829  a.u.
     unit-cell volume          =     304.7951 (a.u.)^3
     number of atoms/cell      =            2
     number of atomic types    =            2
     number of electrons       =         8.00
     number of Kohn-Sham states=            4
     kinetic-energy cutoff     =      60.0000  Ry
     charge density cutoff     =     240.0000  Ry
     scf convergence threshold =      1.0E-08
     mixing beta               =       0.7000
     number of iterations used =            8  plain     mixing
     Exchange-correlation= SLA  PZ   NOGX NOGC
                           (   1   1   0   0   0   0   0)

     celldm(1)=  10.682904  celldm(2)=   0.000000  celldm(3)=   0.000000
     celldm(4)=   0.000000  celldm(5)=   0.000000  celldm(6)=   0.000000

     crystal axes: (cart. coord. in units of alat)
               a(1) = (  -0.500000   0.000000   0.500000 )  
               a(2) = (   0.000000   0.500000   0.500000 )  
               a(3) = (  -0.500000   0.500000   0.000000 )  

     reciprocal axes: (cart. coord. in units 2 pi/alat)
               b(1) = ( -1.000000 -1.000000  1.000000 )  
               b(2) = (  1.000000  1.000000  1.000000 )  
               b(3) = ( -1.000000  1.000000 -1.000000 )  


     PseudoPot. # 1 for Ga read from file:
     /home/paolo/project_labqsm/pseudopotentials/Ga.pz-bhs.UPF
     MD5 check sum: 09b06f4702dea281feaf053846378b49
     Pseudo is Norm-conserving, Zval =  3.0
     Generated by new atomic code, or converted to UPF format
     Using radial grid of  523 points,  2 beta functions with: 
                l(1) =   0
                l(2) =   1

     PseudoPot. # 2 for As read from file:
     /home/paolo/project_labqsm/pseudopotentials/As.pz-bhs.UPF
     MD5 check sum: d67708448008dff3ec15a9356ed645c7
     Pseudo is Norm-conserving, Zval =  5.0
     Generated by new atomic code, or converted to UPF format
     Using radial grid of  525 points,  2 beta functions with: 
                l(1) =   0
                l(2) =   1

     atomic species   valence    mass     pseudopotential
        Ga             3.00    69.72300     Ga( 1.00)
        As             5.00    74.92200     As( 1.00)

     24 Sym. Ops. (no inversion) found



   Cartesian axes

     site n.     atom                  positions (alat units)
         1           Ga  tau(   1) = (   0.0000000   0.0000000   0.0000000  )
         2           As  tau(   2) = (   0.2500000   0.2500000   0.2500000  )

     number of k points=    72
                       cart. coord. in units 2pi/alat
        k(    1) = (   0.0000000   0.0000000   0.0000000), wk =   0.0011574
        k(    2) = (  -0.0833333   0.0833333  -0.0833333), wk =   0.0092593
        k(    3) = (  -0.1666667   0.1666667  -0.1666667), wk =   0.0092593
        k(    4) = (  -0.2500000   0.2500000  -0.2500000), wk =   0.0092593
        k(    5) = (  -0.3333333   0.3333333  -0.3333333), wk =   0.0092593
        k(    6) = (  -0.4166667   0.4166667  -0.4166667), wk =   0.0092593
        k(    7) = (   0.5000000  -0.5000000   0.5000000), wk =   0.0046296
        k(    8) = (   0.0000000   0.1666667   0.0000000), wk =   0.0069444
        k(    9) = (  -0.0833333   0.2500000  -0.0833333), wk =   0.0277778
        k(   10) = (  -0.1666667   0.3333333  -0.1666667), wk =   0.0277778
        k(   11) = (  -0.2500000   0.4166667  -0.2500000), wk =   0.0277778
        k(   12) = (  -0.3333333   0.5000000  -0.3333333), wk =   0.0277778
        k(   13) = (   0.5833333  -0.4166667   0.5833333), wk =   0.0277778
        k(   14) = (   0.5000000  -0.3333333   0.5000000), wk =   0.0277778
        k(   15) = (   0.4166667  -0.2500000   0.4166667), wk =   0.0277778
        k(   16) = (   0.3333333  -0.1666667   0.3333333), wk =   0.0277778
        k(   17) = (   0.2500000  -0.0833333   0.2500000), wk =   0.0277778
        k(   18) = (   0.1666667  -0.0000000   0.1666667), wk =   0.0138889
        k(   19) = (   0.0000000   0.3333333   0.0000000), wk =   0.0069444
        k(   20) = (  -0.0833333   0.4166667  -0.0833333), wk =   0.0277778
        k(   21) = (  -0.1666667   0.5000000  -0.1666667), wk =   0.0277778
        k(   22) = (  -0.2500000   0.5833333  -0.2500000), wk =   0.0277778
        k(   23) = (   0.6666667  -0.3333333   0.6666667), wk =   0.0277778
        k(   24) = (   0.5833333  -0.2500000   0.5833333), wk =   0.0277778
        k(   25) = (   0.5000000  -0.1666667   0.5000000), wk =   0.0277778
        k(   26) = (   0.4166667  -0.0833333   0.4166667), wk =   0.0277778
        k(   27) = (   0.3333333   0.0000000   0.3333333), wk =   0.0138889
        k(   28) = (   0.0000000   0.5000000   0.0000000), wk =   0.0069444
        k(   29) = (  -0.0833333   0.5833333  -0.0833333), wk =   0.0277778
        k(   30) = (  -0.1666667   0.6666667  -0.1666667), wk =   0.0277778
        k(   31) = (   0.7500000  -0.2500000   0.7500000), wk =   0.0277778
        k(   32) = (   0.6666667  -0.1666667   0.6666667), wk =   0.0277778
        k(   33) = (   0.5833333  -0.0833333   0.5833333), wk =   0.0277778
        k(   34) = (   0.5000000   0.0000000   0.5000000), wk =   0.0138889
        k(   35) = (   0.0000000   0.6666667   0.0000000), wk =   0.0069444
        k(   36) = (  -0.0833333   0.7500000  -0.0833333), wk =   0.0277778
        k(   37) = (   0.8333333  -0.1666667   0.8333333), wk =   0.0277778
        k(   38) = (   0.7500000  -0.0833333   0.7500000), wk =   0.0277778
        k(   39) = (   0.6666667  -0.0000000   0.6666667), wk =   0.0138889
        k(   40) = (   0.0000000   0.8333333   0.0000000), wk =   0.0069444
        k(   41) = (   0.9166667  -0.0833333   0.9166667), wk =   0.0277778
        k(   42) = (   0.8333333   0.0000000   0.8333333), wk =   0.0138889
        k(   43) = (   0.0000000  -1.0000000   0.0000000), wk =   0.0034722
        k(   44) = (  -0.1666667   0.3333333   0.0000000), wk =   0.0277778
        k(   45) = (  -0.2500000   0.4166667  -0.0833333), wk =   0.0555556
        k(   46) = (  -0.3333333   0.5000000  -0.1666667), wk =   0.0555556
        k(   47) = (   0.5833333  -0.4166667   0.7500000), wk =   0.0555556
        k(   48) = (   0.5000000  -0.3333333   0.6666667), wk =   0.0277778
        k(   49) = (  -0.1666667   0.5000000   0.0000000), wk =   0.0277778
        k(   50) = (  -0.2500000   0.5833333  -0.0833333), wk =   0.0555556
        k(   51) = (   0.6666667  -0.3333333   0.8333333), wk =   0.0555556
        k(   52) = (   0.5833333  -0.2500000   0.7500000), wk =   0.0555556
        k(   53) = (   0.5000000  -0.1666667   0.6666667), wk =   0.0555556
        k(   54) = (   0.4166667  -0.0833333   0.5833333), wk =   0.0555556
        k(   55) = (   0.3333333   0.0000000   0.5000000), wk =   0.0277778
        k(   56) = (  -0.1666667   0.6666667  -0.0000000), wk =   0.0277778
        k(   57) = (   0.7500000  -0.2500000   0.9166667), wk =   0.0555556
        k(   58) = (   0.6666667  -0.1666667   0.8333333), wk =   0.0555556
        k(   59) = (   0.5833333  -0.0833333   0.7500000), wk =   0.0555556
        k(   60) = (   0.5000000   0.0000000   0.6666667), wk =   0.0277778
        k(   61) = (   0.8333333  -0.1666667   1.0000000), wk =   0.0277778
        k(   62) = (   0.7500000  -0.0833333   0.9166667), wk =   0.0555556
        k(   63) = (   0.6666667   0.0000000   0.8333333), wk =   0.0277778
        k(   64) = (  -0.1666667  -1.0000000  -0.0000000), wk =   0.0138889
        k(   65) = (   0.6666667  -0.3333333   1.0000000), wk =   0.0277778
        k(   66) = (   0.5833333  -0.2500000   0.9166667), wk =   0.0555556
        k(   67) = (   0.5000000  -0.1666667   0.8333333), wk =   0.0277778
        k(   68) = (   0.6666667  -0.1666667   1.0000000), wk =   0.0277778
        k(   69) = (   0.5833333  -0.0833333   0.9166667), wk =   0.0555556
        k(   70) = (   0.5000000   0.0000000   0.8333333), wk =   0.0277778
        k(   71) = (  -0.3333333  -1.0000000   0.0000000), wk =   0.0138889
        k(   72) = (  -0.5000000  -1.0000000   0.0000000), wk =   0.0069444

     Dense  grid:    19195 G-vectors     FFT dimensions: (  40,  40,  40)

     Estimated max dynamical RAM per process >      24.71 MB

     Initial potential from superposition of free atoms

     starting charge       7.9979, renormalised to       8.0000
     Starting wfcs are    8 randomized atomic wfcs

     total cpu time spent up to now is        0.8 secs

     Self-consistent Calculation

     iteration #  1     ecut=    60.00 Ry     beta= 0.70
     Davidson diagonalization with overlap
     ethr =  1.00E-02,  avg # of iterations =  1.3

     Threshold (ethr) on eigenvalues was too large:
     Diagonalizing with lowered threshold

     Davidson diagonalization with overlap
     ethr =  4.64E-04,  avg # of iterations =  3.3

     total cpu time spent up to now is        3.1 secs

     total energy              =     -17.31745645 Ry
     estimated scf accuracy    <       0.04108588 Ry

     iteration #  2     ecut=    60.00 Ry     beta= 0.70
     Davidson diagonalization with overlap
     ethr =  5.14E-04,  avg # of iterations =  2.0

     total cpu time spent up to now is        4.3 secs

     total energy              =     -17.32390447 Ry
     estimated scf accuracy    <       0.00276116 Ry

     iteration #  3     ecut=    60.00 Ry     beta= 0.70
     Davidson diagonalization with overlap
     ethr =  3.45E-05,  avg # of iterations =  2.9

     total cpu time spent up to now is        5.4 secs

     total energy              =     -17.32447508 Ry
     estimated scf accuracy    <       0.00041605 Ry

     iteration #  4     ecut=    60.00 Ry     beta= 0.70
     Davidson diagonalization with overlap
     ethr =  5.20E-06,  avg # of iterations =  3.7

     total cpu time spent up to now is        6.8 secs

     total energy              =     -17.32477740 Ry
     estimated scf accuracy    <       0.00015890 Ry

     iteration #  5     ecut=    60.00 Ry     beta= 0.70
     Davidson diagonalization with overlap
     ethr =  1.99E-06,  avg # of iterations =  2.2

     total cpu time spent up to now is        7.9 secs

     total energy              =     -17.32469424 Ry
     estimated scf accuracy    <       0.00024560 Ry

     iteration #  6     ecut=    60.00 Ry     beta= 0.70
     Davidson diagonalization with overlap
     ethr =  1.99E-06,  avg # of iterations =  1.7

     total cpu time spent up to now is        8.8 secs

     total energy              =     -17.32469087 Ry
     estimated scf accuracy    <       0.00005869 Ry

     iteration #  7     ecut=    60.00 Ry     beta= 0.70
     Davidson diagonalization with overlap
     ethr =  7.34E-07,  avg # of iterations =  2.1

     total cpu time spent up to now is        9.8 secs

     total energy              =     -17.32469754 Ry
     estimated scf accuracy    <       0.00001630 Ry

     iteration #  8     ecut=    60.00 Ry     beta= 0.70
     Davidson diagonalization with overlap
     ethr =  2.04E-07,  avg # of iterations =  2.9

     total cpu time spent up to now is       11.0 secs

     total energy              =     -17.32470045 Ry
     estimated scf accuracy    <       0.00000718 Ry

     iteration #  9     ecut=    60.00 Ry     beta= 0.70
     Davidson diagonalization with overlap
     ethr =  8.98E-08,  avg # of iterations =  2.1

     total cpu time spent up to now is       12.0 secs

     total energy              =     -17.32470053 Ry
     estimated scf accuracy    <       0.00000406 Ry

     iteration # 10     ecut=    60.00 Ry     beta= 0.70
     Davidson diagonalization with overlap
     ethr =  5.07E-08,  avg # of iterations =  1.9

     total cpu time spent up to now is       13.0 secs

     total energy              =     -17.32470038 Ry
     estimated scf accuracy    <       0.00000183 Ry

     iteration # 11     ecut=    60.00 Ry     beta= 0.70
     Davidson diagonalization with overlap
     ethr =  2.29E-08,  avg # of iterations =  2.7

     total cpu time spent up to now is       14.1 secs

     total energy              =     -17.32470073 Ry
     estimated scf accuracy    <       0.00000035 Ry

     iteration # 12     ecut=    60.00 Ry     beta= 0.70
     Davidson diagonalization with overlap
     ethr =  4.37E-09,  avg # of iterations =  3.7

     total cpu time spent up to now is       15.4 secs

     total energy              =     -17.32470078 Ry
     estimated scf accuracy    <       0.00000013 Ry

     iteration # 13     ecut=    60.00 Ry     beta= 0.70
     Davidson diagonalization with overlap
     ethr =  1.65E-09,  avg # of iterations =  3.5

     total cpu time spent up to now is       16.8 secs

     total energy              =     -17.32470085 Ry
     estimated scf accuracy    <       0.00000001 Ry

     iteration # 14     ecut=    60.00 Ry     beta= 0.70
     Davidson diagonalization with overlap
     ethr =  1.44E-10,  avg # of iterations =  5.8

     total cpu time spent up to now is       18.6 secs

     total energy              =     -17.32470086 Ry
     estimated scf accuracy    <       0.00000005 Ry

     iteration # 15     ecut=    60.00 Ry     beta= 0.70
     Davidson diagonalization with overlap
     ethr =  1.44E-10,  avg # of iterations =  1.1

     total cpu time spent up to now is       19.5 secs

     total energy              =     -17.32470085 Ry
     estimated scf accuracy    <       0.00000004 Ry

     iteration # 16     ecut=    60.00 Ry     beta= 0.70
     Davidson diagonalization with overlap
     ethr =  1.44E-10,  avg # of iterations =  1.8

     total cpu time spent up to now is       20.4 secs

     total energy              =     -17.32470084 Ry
     estimated scf accuracy    <       0.00000002 Ry

     iteration # 17     ecut=    60.00 Ry     beta= 0.70
     Davidson diagonalization with overlap
     ethr =  1.44E-10,  avg # of iterations =  4.0

     total cpu time spent up to now is       22.0 secs

     total energy              =     -17.32470085 Ry
     estimated scf accuracy    <       0.00000001 Ry

     iteration # 18     ecut=    60.00 Ry     beta= 0.70
     Davidson diagonalization with overlap
     ethr =  1.26E-10,  avg # of iterations =  1.0

     total cpu time spent up to now is       22.8 secs

     End of self-consistent calculation

          k = 0.0000 0.0000 0.0000 (  2421 PWs)   bands (ev):

    -7.8549   4.5837   4.5837   4.5837

          k =-0.0833 0.0833-0.0833 (  2391 PWs)   bands (ev):

    -7.7868   3.4347   4.4789   4.4789

          k =-0.1667 0.1667-0.1667 (  2397 PWs)   bands (ev):

    -7.5870   1.9153   4.2311   4.2311

          k =-0.2500 0.2500-0.2500 (  2406 PWs)   bands (ev):

    -7.2724   0.4828   3.9538   3.9538

          k =-0.3333 0.3333-0.3333 (  2406 PWs)   bands (ev):

    -6.8853  -0.7404   3.7223   3.7223

          k =-0.4167 0.4167-0.4167 (  2401 PWs)   bands (ev):

    -6.5240  -1.6164   3.5733   3.5733

          k = 0.5000-0.5000 0.5000 (  2392 PWs)   bands (ev):

    -6.3647  -1.9494   3.5222   3.5222

          k = 0.0000 0.1667 0.0000 (  2389 PWs)   bands (ev):

    -7.7640   3.3883   4.2701   4.2701

          k =-0.0833 0.2500-0.0833 (  2393 PWs)   bands (ev):

    -7.6077   2.2396   3.9661   4.0510

          k =-0.1667 0.3333-0.1667 (  2401 PWs)   bands (ev):

    -7.3298   0.8787   3.6777   3.7433

          k =-0.2500 0.4167-0.2500 (  2399 PWs)   bands (ev):

    -6.9621  -0.3729   3.4040   3.4681

          k =-0.3333 0.5000-0.3333 (  2401 PWs)   bands (ev):

    -6.5798  -1.3546   3.1185   3.3656

          k = 0.5833-0.4167 0.5833 (  2396 PWs)   bands (ev):

    -6.3349  -1.8777   2.9290   3.3782

          k = 0.5000-0.3333 0.5000 (  2396 PWs)   bands (ev):

    -6.3898  -1.7658   2.8563   3.5010

          k = 0.4167-0.2500 0.4167 (  2403 PWs)   bands (ev):

    -6.7025  -1.0643   2.9124   3.7181

          k = 0.3333-0.1667 0.3333 (  2399 PWs)   bands (ev):

    -7.0924   0.0227   3.1042   3.9986

          k = 0.2500-0.0833 0.2500 (  2406 PWs)   bands (ev):

    -7.4354   1.3109   3.4379   4.2855

          k = 0.1667-0.0000 0.1667 (  2389 PWs)   bands (ev):

    -7.6746   2.5828   3.9347   4.4816

          k = 0.0000 0.3333 0.0000 (  2405 PWs)   bands (ev):

    -7.4958   1.9119   3.6217   3.6217

          k =-0.0833 0.4167-0.0833 (  2393 PWs)   bands (ev):

    -7.2597   0.9691   3.2538   3.3102

          k =-0.1667 0.5000-0.1667 (  2386 PWs)   bands (ev):

    -6.9235  -0.1172   2.7925   3.0931

          k =-0.2500 0.5833-0.2500 (  2390 PWs)   bands (ev):

    -6.5449  -1.0790   2.3521   2.9985

          k = 0.6667-0.3333 0.6667 (  2390 PWs)   bands (ev):

    -6.2466  -1.7068   2.0182   3.0345

          k = 0.5833-0.2500 0.5833 (  2386 PWs)   bands (ev):

    -6.1993  -1.7952   1.8311   3.1952

          k = 0.5000-0.1667 0.5000 (  2397 PWs)   bands (ev):

    -6.4378  -1.3108   1.8212   3.4599

          k = 0.4167-0.0833 0.4167 (  2388 PWs)   bands (ev):

    -6.8080  -0.4553   2.0340   3.7875

          k = 0.3333 0.0000 0.3333 (  2391 PWs)   bands (ev):

    -7.1651   0.4998   2.5575   4.1023

          k = 0.0000 0.5000 0.0000 (  2413 PWs)   bands (ev):

    -7.0671   0.5167   2.9722   2.9722

          k =-0.0833 0.5833-0.0833 (  2395 PWs)   bands (ev):

    -6.7714  -0.2422   2.5424   2.7310

          k =-0.1667 0.6667-0.1667 (  2392 PWs)   bands (ev):

    -6.4186  -1.0136   1.9501   2.6183

          k = 0.7500-0.2500 0.7500 (  2395 PWs)   bands (ev):

    -6.1062  -1.5932   1.4218   2.6451

          k = 0.6667-0.1667 0.6667 (  2382 PWs)   bands (ev):

    -5.9861  -1.7863   1.0807   2.8075

          k = 0.5833-0.0833 0.5833 (  2375 PWs)   bands (ev):

    -6.1385  -1.5236   1.0033   3.0865

          k = 0.5000 0.0000 0.5000 (  2385 PWs)   bands (ev):

    -6.4608  -0.9936   1.2915   3.4400

          k = 0.0000 0.6667 0.0000 (  2397 PWs)   bands (ev):

    -6.5222  -0.7329   2.4594   2.4594

          k =-0.0833 0.7500-0.0833 (  2397 PWs)   bands (ev):

    -6.2164  -1.2970   2.0374   2.3161

          k = 0.8333-0.1667 0.8333 (  2398 PWs)   bands (ev):

    -5.9355  -1.7240   1.3988   2.3158

          k = 0.7500-0.0833 0.7500 (  2379 PWs)   bands (ev):

    -5.8012  -1.8788   0.8750   2.4581

          k = 0.6667-0.0000 0.6667 (  2381 PWs)   bands (ev):

    -5.8883  -1.7528   0.6870   2.7274

          k = 0.0000 0.8333 0.0000 (  2394 PWs)   bands (ev):

    -5.9794  -1.7067   2.1373   2.1373

          k = 0.9167-0.0833 0.9167 (  2397 PWs)   bands (ev):

    -5.7831  -1.9873   1.7784   2.1016

          k = 0.8333 0.0000 0.8333 (  2390 PWs)   bands (ev):

    -5.7150  -2.0208   1.2096   2.2124

          k = 0.0000-1.0000 0.0000 (  2402 PWs)   bands (ev):

    -5.7193  -2.1122   2.0278   2.0278

          k =-0.1667 0.3333 0.0000 (  2394 PWs)   bands (ev):

    -7.4115   1.3966   3.2595   3.9682

          k =-0.2500 0.4167-0.0833 (  2398 PWs)   bands (ev):

    -7.1033   0.3073   2.7190   3.7338

          k =-0.3333 0.5000-0.1667 (  2397 PWs)   bands (ev):

    -6.7261  -0.7527   2.3911   3.4510

          k = 0.5833-0.4167 0.7500 (  2396 PWs)   bands (ev):

    -6.3767  -1.5492   2.2184   3.2380

          k = 0.5000-0.3333 0.6667 (  2392 PWs)   bands (ev):

    -6.2236  -1.8564   2.1653   3.1598

          k =-0.1667 0.5000 0.0000 (  2393 PWs)   bands (ev):

    -6.9930   0.2254   2.6033   3.1788

          k =-0.2500 0.5833-0.0833 (  2397 PWs)   bands (ev):

    -6.6449  -0.6203   2.0670   2.9324

          k = 0.6667-0.3333 0.8333 (  2392 PWs)   bands (ev):

    -6.2907  -1.3603   1.6743   2.7523

          k = 0.5833-0.2500 0.7500 (  2387 PWs)   bands (ev):

    -6.0718  -1.7647   1.4203   2.7359

          k = 0.5000-0.1667 0.6667 (  2390 PWs)   bands (ev):

    -6.1273  -1.6606   1.3312   2.8868

          k = 0.4167-0.0833 0.5833 (  2395 PWs)   bands (ev):

    -6.4165  -1.1138   1.4631   3.1653

          k = 0.3333 0.0000 0.5000 (  2395 PWs)   bands (ev):

    -6.7802  -0.3795   1.9065   3.4943

          k =-0.1667 0.6667-0.0000 (  2397 PWs)   bands (ev):

    -6.4664  -0.8524   2.1064   2.4899

          k = 0.7500-0.2500 0.9167 (  2387 PWs)   bands (ev):

    -6.1393  -1.4144   1.5685   2.3010

          k = 0.6667-0.1667 0.8333 (  2382 PWs)   bands (ev):

    -5.9039  -1.7640   1.0833   2.3045

          k = 0.5833-0.0833 0.7500 (  2381 PWs)   bands (ev):

    -5.8880  -1.7708   0.8232   2.4832

          k = 0.5000 0.0000 0.6667 (  2386 PWs)   bands (ev):

    -6.0989  -1.4855   0.9182   2.7948

          k = 0.8333-0.1667 1.0000 (  2389 PWs)   bands (ev):

    -5.9509  -1.7082   1.8237   2.0189

          k = 0.7500-0.0833 0.9167 (  2388 PWs)   bands (ev):

    -5.7626  -1.9302   1.2896   1.9766

          k = 0.6667 0.0000 0.8333 (  2378 PWs)   bands (ev):

    -5.7407  -1.9117   0.8475   2.1586

          k =-0.1667-1.0000-0.0000 (  2392 PWs)   bands (ev):

    -5.7093  -2.0657   1.7605   1.8252

          k = 0.6667-0.3333 1.0000 (  2391 PWs)   bands (ev):

    -6.3120  -1.1488   1.4523   2.6174

          k = 0.5833-0.2500 0.9167 (  2397 PWs)   bands (ev):

    -6.0141  -1.6009   1.1036   2.3278

          k = 0.5000-0.1667 0.8333 (  2384 PWs)   bands (ev):

    -5.8877  -1.7882   0.9965   2.2156

          k = 0.6667-0.1667 1.0000 (  2386 PWs)   bands (ev):

    -5.8793  -1.7299   1.2590   1.8721

          k = 0.5833-0.0833 0.9167 (  2389 PWs)   bands (ev):

    -5.7417  -1.8693   0.9811   1.7342

          k = 0.5000 0.0000 0.8333 (  2392 PWs)   bands (ev):

    -5.7983  -1.7989   0.8701   1.9327

          k =-0.3333-1.0000 0.0000 (  2402 PWs)   bands (ev):

    -5.6890  -1.9634   1.3050   1.4923

          k =-0.5000-1.0000 0.0000 (  2400 PWs)   bands (ev):

    -5.6788  -1.9064   1.1000   1.3497

     highest occupied level (ev):     4.5837

!    total energy              =     -17.32470084 Ry
     estimated scf accuracy    <          9.6E-09 Ry

     The total energy is the sum of the following terms:
     one-electron contribution =       2.72713319 Ry
     hartree contribution      =       1.55873265 Ry
     xc contribution           =      -4.76651551 Ry
     ewald contribution        =     -16.84405118 Ry

     convergence has been achieved in  18 iterations

     Writing all to output data dir ./SCRATCH/gallium_arsenide.save/

     init_run     :      0.77s CPU      0.81s WALL (       1 calls)
     electrons    :     21.53s CPU     21.99s WALL (       1 calls)

     Called by init_run:
     wfcinit      :      0.70s CPU      0.75s WALL (       1 calls)
     potinit      :      0.02s CPU      0.01s WALL (       1 calls)
     hinit0       :      0.03s CPU      0.03s WALL (       1 calls)

     Called by electrons:
     c_bands      :     18.34s CPU     18.74s WALL (      19 calls)
     sum_band     :      3.06s CPU      3.14s WALL (      19 calls)
     v_of_rho     :      0.03s CPU      0.06s WALL (      19 calls)
     mix_rho      :      0.06s CPU      0.05s WALL (      19 calls)

     Called by c_bands:
     init_us_2    :      0.59s CPU      0.65s WALL (    2808 calls)
     init_us_2:cp :      0.59s CPU      0.63s WALL (    2808 calls)
     cegterg      :     17.86s CPU     18.06s WALL (    1368 calls)

     Called by *egterg:
     cdiaghg      :      0.14s CPU      0.09s WALL (    4861 calls)
     h_psi        :     17.31s CPU     17.35s WALL (    5005 calls)
     g_psi        :      0.03s CPU      0.07s WALL (    3565 calls)

     Called by h_psi:
     h_psi:calbec :      0.23s CPU      0.36s WALL (    5005 calls)
     vloc_psi     :     16.84s CPU     16.64s WALL (    5005 calls)
     add_vuspsi   :      0.20s CPU      0.26s WALL (    5005 calls)

     General routines
     calbec       :      0.23s CPU      0.34s WALL (    5005 calls)
     fft          :      0.02s CPU      0.04s WALL (      57 calls)
     ffts         :      0.00s CPU      0.02s WALL (      19 calls)
     fftw         :     18.03s CPU     17.67s WALL (   37944 calls)


     PWSCF        :     22.31s CPU     22.85s WALL


   This run was terminated on:  12:14:12  25May2024            

=------------------------------------------------------------------------------=
   JOB DONE.
=------------------------------------------------------------------------------=
