
     Program PWSCF v.7.2 starts on 11Jun2024 at 11: 8:36 

     This program is part of the open-source Quantum ESPRESSO suite
     for quantum simulation of materials; please cite
         "P. Giannozzi et al., J. Phys.:Condens. Matter 21 395502 (2009);
         "P. Giannozzi et al., J. Phys.:Condens. Matter 29 465901 (2017);
         "P. Giannozzi et al., J. Chem. Phys. 152 154105 (2020);
          URL http://www.quantum-espresso.org", 
     in publications or presentations arising from this work. More details at
     http://www.quantum-espresso.org/quote

     Serial version
     9001 MiB available memory on the printing compute node when the environment starts

     Waiting for input...
     Reading input from standard input

     Current dimensions of program PWSCF are:
     Max number of different atomic species (ntypx) = 10
     Max number of k-points (npk) =  40000
     Max angular momentum in pseudopotentials (lmaxx) =  4
     file Ga.pbe-dn-rrkjus_psl.0.2.UPF: wavefunction(s)  4S 3D renormalized


     G-vector sticks info
     --------------------
     sticks:   dense  smooth     PW     G-vecs:    dense   smooth      PW
     Sum        1285     511    163                30827     7799    1411

     Using Slab Decomposition



     bravais-lattice index     =            2
     lattice parameter (alat)  =      10.6829  a.u.
     unit-cell volume          =     304.7951 (a.u.)^3
     number of atoms/cell      =            2
     number of atomic types    =            2
     number of electrons       =        18.00
     number of Kohn-Sham states=            9
     kinetic-energy cutoff     =      33.0000  Ry
     charge density cutoff     =     330.0000  Ry
     scf convergence threshold =      1.0E-08
     mixing beta               =       0.7000
     number of iterations used =            8  plain     mixing
     Exchange-correlation= PBE
                           (   1   4   3   4   0   0   0)

     celldm(1)=  10.682904  celldm(2)=   0.000000  celldm(3)=   0.000000
     celldm(4)=   0.000000  celldm(5)=   0.000000  celldm(6)=   0.000000

     crystal axes: (cart. coord. in units of alat)
               a(1) = (  -0.500000   0.000000   0.500000 )  
               a(2) = (   0.000000   0.500000   0.500000 )  
               a(3) = (  -0.500000   0.500000   0.000000 )  

     reciprocal axes: (cart. coord. in units 2 pi/alat)
               b(1) = ( -1.000000 -1.000000  1.000000 )  
               b(2) = (  1.000000  1.000000  1.000000 )  
               b(3) = ( -1.000000  1.000000 -1.000000 )  


     PseudoPot. # 1 for Ga read from file:
     /home/paolo/project_labqsm/pseudopotentials/Ga.pbe-dn-rrkjus_psl.0.2.UPF
     MD5 check sum: ffdfce4fe0c152725d7fa40f12f9e9e5
     Pseudo is Ultrasoft + core correction, Zval = 13.0
     Generated using "atomic" code by A. Dal Corso  v.5.0.2 svn rev. 9415
     Using radial grid of 1205 points,  6 beta functions with: 
                l(1) =   0
                l(2) =   0
                l(3) =   1
                l(4) =   1
                l(5) =   2
                l(6) =   2
     Q(r) pseudized with 0 coefficients 


     PseudoPot. # 2 for As read from file:
     /home/paolo/project_labqsm/pseudopotentials/As.pbe-n-rrkjus_psl.0.2.UPF
     MD5 check sum: f98050c7212d27f7cb33035312670de9
     Pseudo is Ultrasoft + core correction, Zval =  5.0
     Generated using "atomic" code by A. Dal Corso  v.5.0.2 svn rev. 9415
     Using radial grid of 1209 points,  4 beta functions with: 
                l(1) =   0
                l(2) =   0
                l(3) =   1
                l(4) =   1
     Q(r) pseudized with 0 coefficients 


     atomic species   valence    mass     pseudopotential
        Ga            13.00    69.72300     Ga( 1.00)
        As             5.00    74.92200     As( 1.00)

     24 Sym. Ops. (no inversion) found



   Cartesian axes

     site n.     atom                  positions (alat units)
         1           Ga  tau(   1) = (   0.0000000   0.0000000   0.0000000  )
         2           As  tau(   2) = (   0.2500000   0.2500000   0.2500000  )

     number of k points=    29
                       cart. coord. in units 2pi/alat
        k(    1) = (   0.0000000   0.0000000   0.0000000), wk =   0.0039062
        k(    2) = (  -0.1250000   0.1250000  -0.1250000), wk =   0.0312500
        k(    3) = (  -0.2500000   0.2500000  -0.2500000), wk =   0.0312500
        k(    4) = (  -0.3750000   0.3750000  -0.3750000), wk =   0.0312500
        k(    5) = (   0.5000000  -0.5000000   0.5000000), wk =   0.0156250
        k(    6) = (   0.0000000   0.2500000   0.0000000), wk =   0.0234375
        k(    7) = (  -0.1250000   0.3750000  -0.1250000), wk =   0.0937500
        k(    8) = (  -0.2500000   0.5000000  -0.2500000), wk =   0.0937500
        k(    9) = (   0.6250000  -0.3750000   0.6250000), wk =   0.0937500
        k(   10) = (   0.5000000  -0.2500000   0.5000000), wk =   0.0937500
        k(   11) = (   0.3750000  -0.1250000   0.3750000), wk =   0.0937500
        k(   12) = (   0.2500000   0.0000000   0.2500000), wk =   0.0468750
        k(   13) = (   0.0000000   0.5000000   0.0000000), wk =   0.0234375
        k(   14) = (  -0.1250000   0.6250000  -0.1250000), wk =   0.0937500
        k(   15) = (   0.7500000  -0.2500000   0.7500000), wk =   0.0937500
        k(   16) = (   0.6250000  -0.1250000   0.6250000), wk =   0.0937500
        k(   17) = (   0.5000000   0.0000000   0.5000000), wk =   0.0468750
        k(   18) = (   0.0000000   0.7500000   0.0000000), wk =   0.0234375
        k(   19) = (   0.8750000  -0.1250000   0.8750000), wk =   0.0937500
        k(   20) = (   0.7500000   0.0000000   0.7500000), wk =   0.0468750
        k(   21) = (   0.0000000  -1.0000000   0.0000000), wk =   0.0117188
        k(   22) = (  -0.2500000   0.5000000   0.0000000), wk =   0.0937500
        k(   23) = (   0.6250000  -0.3750000   0.8750000), wk =   0.1875000
        k(   24) = (   0.5000000  -0.2500000   0.7500000), wk =   0.0937500
        k(   25) = (   0.7500000  -0.2500000   1.0000000), wk =   0.0937500
        k(   26) = (   0.6250000  -0.1250000   0.8750000), wk =   0.1875000
        k(   27) = (   0.5000000   0.0000000   0.7500000), wk =   0.0937500
        k(   28) = (  -0.2500000  -1.0000000   0.0000000), wk =   0.0468750
        k(   29) = (  -0.5000000  -1.0000000   0.0000000), wk =   0.0234375

     Dense  grid:    30827 G-vectors     FFT dimensions: (  45,  45,  45)

     Smooth grid:     7799 G-vectors     FFT dimensions: (  27,  27,  27)

     Estimated max dynamical RAM per process >     115.13 MB

     Initial potential from superposition of free atoms

     starting charge      17.9968, renormalised to      18.0000
     Starting wfcs are   13 randomized atomic wfcs

     total cpu time spent up to now is        0.9 secs

     Self-consistent Calculation

     iteration #  1     ecut=    33.00 Ry     beta= 0.70
     Davidson diagonalization with overlap
     ethr =  1.00E-02,  avg # of iterations =  1.4

     Threshold (ethr) on eigenvalues was too large:
     Diagonalizing with lowered threshold

     Davidson diagonalization with overlap
     ethr =  2.93E-04,  avg # of iterations =  2.0

     total cpu time spent up to now is        2.1 secs

     total energy              =    -191.00817451 Ry
     estimated scf accuracy    <       0.05065416 Ry

     iteration #  2     ecut=    33.00 Ry     beta= 0.70
     Davidson diagonalization with overlap
     ethr =  2.81E-04,  avg # of iterations =  2.4

     total cpu time spent up to now is        2.9 secs

     total energy              =    -191.01829788 Ry
     estimated scf accuracy    <       0.00972002 Ry

     iteration #  3     ecut=    33.00 Ry     beta= 0.70
     Davidson diagonalization with overlap
     ethr =  5.40E-05,  avg # of iterations =  2.0

     total cpu time spent up to now is        3.7 secs

     total energy              =    -191.02010630 Ry
     estimated scf accuracy    <       0.00043045 Ry

     iteration #  4     ecut=    33.00 Ry     beta= 0.70
     Davidson diagonalization with overlap
     ethr =  2.39E-06,  avg # of iterations =  2.8

     total cpu time spent up to now is        4.4 secs

     total energy              =    -191.02019261 Ry
     estimated scf accuracy    <       0.00006577 Ry

     iteration #  5     ecut=    33.00 Ry     beta= 0.70
     Davidson diagonalization with overlap
     ethr =  3.65E-07,  avg # of iterations =  2.0

     total cpu time spent up to now is        5.1 secs

     total energy              =    -191.02018859 Ry
     estimated scf accuracy    <       0.00001396 Ry

     iteration #  6     ecut=    33.00 Ry     beta= 0.70
     Davidson diagonalization with overlap
     ethr =  7.76E-08,  avg # of iterations =  3.5

     total cpu time spent up to now is        5.9 secs

     total energy              =    -191.02019255 Ry
     estimated scf accuracy    <       0.00001235 Ry

     iteration #  7     ecut=    33.00 Ry     beta= 0.70
     Davidson diagonalization with overlap
     ethr =  6.86E-08,  avg # of iterations =  2.0

     total cpu time spent up to now is        6.6 secs

     total energy              =    -191.02019459 Ry
     estimated scf accuracy    <       0.00000006 Ry

     iteration #  8     ecut=    33.00 Ry     beta= 0.70
     Davidson diagonalization with overlap
     ethr =  3.37E-10,  avg # of iterations =  5.6

     total cpu time spent up to now is        7.6 secs

     total energy              =    -191.02019469 Ry
     estimated scf accuracy    <       0.00000010 Ry

     iteration #  9     ecut=    33.00 Ry     beta= 0.70
     Davidson diagonalization with overlap
     ethr =  3.37E-10,  avg # of iterations =  2.0

     total cpu time spent up to now is        8.3 secs

     End of self-consistent calculation

          k = 0.0000 0.0000 0.0000 (   941 PWs)   bands (ev):

    -8.0135  -8.0135  -8.0135  -7.9345  -7.9345  -5.9557   6.7790   6.7790
     6.7790

          k =-0.1250 0.1250-0.1250 (   959 PWs)   bands (ev):

    -8.0269  -8.0100  -8.0100  -7.9346  -7.9346  -5.7734   4.8139   6.5415
     6.5415

          k =-0.2500 0.2500-0.2500 (   962 PWs)   bands (ev):

    -8.0562  -8.0022  -8.0022  -7.9338  -7.9338  -5.2642   2.6336   6.0980
     6.0980

          k =-0.3750 0.3750-0.3750 (   972 PWs)   bands (ev):

    -8.0823  -7.9961  -7.9961  -7.9314  -7.9314  -4.5821   0.8831   5.7568
     5.7568

          k = 0.5000-0.5000 0.5000 (   978 PWs)   bands (ev):

    -8.0924  -7.9941  -7.9941  -7.9299  -7.9299  -4.1931   0.1292   5.6343
     5.6343

          k = 0.0000 0.2500 0.0000 (   950 PWs)   bands (ev):

    -8.0346  -8.0065  -8.0065  -7.9374  -7.9324  -5.7127   4.7873   6.1180
     6.1180

          k =-0.1250 0.3750-0.1250 (   962 PWs)   bands (ev):

    -8.0579  -8.0000  -7.9984  -7.9396  -7.9304  -5.3109   3.1430   5.6062
     5.6275

          k =-0.2500 0.5000-0.2500 (   988 PWs)   bands (ev):

    -8.0816  -7.9946  -7.9916  -7.9385  -7.9287  -4.6694   1.3843   5.0060
     5.3353

          k = 0.6250-0.3750 0.6250 (   976 PWs)   bands (ev):

    -8.0946  -7.9920  -7.9892  -7.9345  -7.9290  -4.1193   0.2852   4.5748
     5.3261

          k = 0.5000-0.2500 0.5000 (   975 PWs)   bands (ev):

    -8.0909  -7.9922  -7.9912  -7.9327  -7.9316  -4.2575   0.5399   4.4370
     5.5935

          k = 0.3750-0.1250 0.3750 (   968 PWs)   bands (ev):

    -8.0719  -7.9977  -7.9956  -7.9363  -7.9316  -4.9009   1.9329   4.6669
     6.0552

          k = 0.2500 0.0000 0.2500 (   963 PWs)   bands (ev):

    -8.0459  -8.0059  -8.0024  -7.9366  -7.9328  -5.4812   3.6371   5.4100
     6.4980

          k = 0.0000 0.5000 0.0000 (   982 PWs)   bands (ev):

    -8.0768  -7.9893  -7.9893  -7.9460  -7.9273  -5.0293   2.6852   5.0826
     5.0826

          k =-0.1250 0.6250-0.1250 (   981 PWs)   bands (ev):

    -8.0952  -7.9829  -7.9810  -7.9484  -7.9252  -4.4838   1.5062   4.3555
     4.7516

          k = 0.7500-0.2500 0.7500 (   977 PWs)   bands (ev):

    -8.1042  -7.9831  -7.9779  -7.9450  -7.9263  -3.9043   0.4970   3.5346
     4.7337

          k = 0.6250-0.1250 0.6250 (   977 PWs)   bands (ev):

    -8.1016  -7.9863  -7.9803  -7.9387  -7.9312  -3.8113   0.3685   3.1194
     5.0306

          k = 0.5000 0.0000 0.5000 (   975 PWs)   bands (ev):

    -8.0894  -7.9902  -7.9881  -7.9358  -7.9335  -4.3177   1.1264   3.4052
     5.5542

          k = 0.0000 0.7500 0.0000 (   982 PWs)   bands (ev):

    -8.1114  -7.9715  -7.9715  -7.9556  -7.9222  -4.0692   0.8603   4.3512
     4.3512

          k = 0.8750-0.1250 0.8750 (   979 PWs)   bands (ev):

    -8.1179  -7.9707  -7.9677  -7.9550  -7.9223  -3.6126   0.2222   3.6566
     4.2652

          k = 0.7500 0.0000 0.7500 (   977 PWs)   bands (ev):

    -8.1127  -7.9778  -7.9708  -7.9481  -7.9266  -3.4903   0.1370   2.9090
     4.5145

          k = 0.0000-1.0000 0.0000 (   982 PWs)   bands (ev):

    -8.1243  -7.9639  -7.9639  -7.9599  -7.9201  -3.4548  -0.0482   4.0945
     4.0945

          k =-0.2500 0.5000 0.0000 (   978 PWs)   bands (ev):

    -8.0785  -7.9929  -7.9900  -7.9422  -7.9286  -4.8352   2.0911   4.3736
     5.4744

          k = 0.6250-0.3750 0.8750 (   980 PWs)   bands (ev):

    -8.0946  -7.9893  -7.9833  -7.9408  -7.9288  -4.2039   0.8787   3.7182
     5.0371

          k = 0.5000-0.2500 0.7500 (   972 PWs)   bands (ev):

    -8.1007  -7.9886  -7.9808  -7.9383  -7.9300  -3.8510   0.2817   3.5440
     4.8347

          k = 0.7500-0.2500 1.0000 (   977 PWs)   bands (ev):

    -8.1073  -7.9792  -7.9735  -7.9498  -7.9248  -3.9549   0.7231   3.7279
     4.2944

          k = 0.6250-0.1250 0.8750 (   977 PWs)   bands (ev):

    -8.1098  -7.9818  -7.9710  -7.9460  -7.9278  -3.5580   0.2356   3.1065
     4.1165

          k = 0.5000 0.0000 0.7500 (   984 PWs)   bands (ev):

    -8.1046  -7.9858  -7.9746  -7.9419  -7.9305  -3.6984   0.4048   2.9631
     4.4591

          k =-0.2500-1.0000 0.0000 (   974 PWs)   bands (ev):

    -8.1181  -7.9728  -7.9670  -7.9526  -7.9237  -3.4254   0.0379   3.6297
     3.7215

          k =-0.5000-1.0000 0.0000 (   992 PWs)   bands (ev):

    -8.1111  -7.9826  -7.9683  -7.9452  -7.9292  -3.3955   0.1354   3.2373
     3.4219

     highest occupied level (ev):     6.7790

!    total energy              =    -191.02019469 Ry
     estimated scf accuracy    <          5.7E-09 Ry

     The total energy is the sum of the following terms:
     one-electron contribution =    -111.77584308 Ry
     hartree contribution      =      71.69519196 Ry
     xc contribution           =     -57.92037251 Ry
     ewald contribution        =     -93.01917106 Ry

     convergence has been achieved in   9 iterations

     Writing all to output data dir ./SCRATCH/gallium_arsenide.save/

     init_run     :      0.73s CPU      0.80s WALL (       1 calls)
     electrons    :      5.75s CPU      7.37s WALL (       1 calls)

     Called by init_run:
     wfcinit      :      0.19s CPU      0.21s WALL (       1 calls)
     potinit      :      0.06s CPU      0.06s WALL (       1 calls)
     hinit0       :      0.38s CPU      0.37s WALL (       1 calls)

     Called by electrons:
     c_bands      :      3.83s CPU      3.96s WALL (      10 calls)
     sum_band     :      1.16s CPU      1.96s WALL (      10 calls)
     v_of_rho     :      0.34s CPU      0.30s WALL (      10 calls)
     newd         :      0.56s CPU      1.30s WALL (      10 calls)
     mix_rho      :      0.00s CPU      0.02s WALL (      10 calls)

     Called by c_bands:
     init_us_2    :      0.11s CPU      0.13s WALL (     609 calls)
     init_us_2:cp :      0.11s CPU      0.12s WALL (     609 calls)
     cegterg      :      3.66s CPU      3.72s WALL (     290 calls)

     Called by *egterg:
     cdiaghg      :      0.05s CPU      0.06s WALL (    1007 calls)
     h_psi        :      3.11s CPU      3.19s WALL (    1065 calls)
     s_psi        :      0.08s CPU      0.15s WALL (    1065 calls)
     g_psi        :      0.00s CPU      0.01s WALL (     746 calls)

     Called by h_psi:
     h_psi:calbec :      0.12s CPU      0.21s WALL (    1065 calls)
     vloc_psi     :      2.80s CPU      2.81s WALL (    1065 calls)
     add_vuspsi   :      0.19s CPU      0.15s WALL (    1065 calls)

     General routines
     calbec       :      0.19s CPU      0.27s WALL (    1355 calls)
     fft          :      0.16s CPU      0.15s WALL (     129 calls)
     ffts         :      0.00s CPU      0.00s WALL (      20 calls)
     fftw         :      2.75s CPU      2.82s WALL (   17760 calls)
     interpolate  :      0.00s CPU      0.02s WALL (      10 calls)


     PWSCF        :      6.55s CPU      8.30s WALL


   This run was terminated on:  11: 8:44  11Jun2024            

=------------------------------------------------------------------------------=
   JOB DONE.
=------------------------------------------------------------------------------=
