
     Program PWSCF v.7.2 starts on 11Jun2024 at 11: 8:44 

     This program is part of the open-source Quantum ESPRESSO suite
     for quantum simulation of materials; please cite
         "P. Giannozzi et al., J. Phys.:Condens. Matter 21 395502 (2009);
         "P. Giannozzi et al., J. Phys.:Condens. Matter 29 465901 (2017);
         "P. Giannozzi et al., J. Chem. Phys. 152 154105 (2020);
          URL http://www.quantum-espresso.org", 
     in publications or presentations arising from this work. More details at
     http://www.quantum-espresso.org/quote

     Serial version
     9009 MiB available memory on the printing compute node when the environment starts

     Waiting for input...
     Reading input from standard input

     Current dimensions of program PWSCF are:
     Max number of different atomic species (ntypx) = 10
     Max number of k-points (npk) =  40000
     Max angular momentum in pseudopotentials (lmaxx) =  4
     file Ga.pbe-dn-rrkjus_psl.0.2.UPF: wavefunction(s)  4S 3D renormalized


     G-vector sticks info
     --------------------
     sticks:   dense  smooth     PW     G-vecs:    dense   smooth      PW
     Sum        1285     511    163                30827     7799    1411

     Using Slab Decomposition



     bravais-lattice index     =            2
     lattice parameter (alat)  =      10.6829  a.u.
     unit-cell volume          =     304.7951 (a.u.)^3
     number of atoms/cell      =            2
     number of atomic types    =            2
     number of electrons       =        18.00
     number of Kohn-Sham states=            9
     kinetic-energy cutoff     =      33.0000  Ry
     charge density cutoff     =     330.0000  Ry
     scf convergence threshold =      1.0E-08
     mixing beta               =       0.7000
     number of iterations used =            8  plain     mixing
     Exchange-correlation= PBE
                           (   1   4   3   4   0   0   0)

     celldm(1)=  10.682904  celldm(2)=   0.000000  celldm(3)=   0.000000
     celldm(4)=   0.000000  celldm(5)=   0.000000  celldm(6)=   0.000000

     crystal axes: (cart. coord. in units of alat)
               a(1) = (  -0.500000   0.000000   0.500000 )  
               a(2) = (   0.000000   0.500000   0.500000 )  
               a(3) = (  -0.500000   0.500000   0.000000 )  

     reciprocal axes: (cart. coord. in units 2 pi/alat)
               b(1) = ( -1.000000 -1.000000  1.000000 )  
               b(2) = (  1.000000  1.000000  1.000000 )  
               b(3) = ( -1.000000  1.000000 -1.000000 )  


     PseudoPot. # 1 for Ga read from file:
     /home/paolo/project_labqsm/pseudopotentials/Ga.pbe-dn-rrkjus_psl.0.2.UPF
     MD5 check sum: ffdfce4fe0c152725d7fa40f12f9e9e5
     Pseudo is Ultrasoft + core correction, Zval = 13.0
     Generated using "atomic" code by A. Dal Corso  v.5.0.2 svn rev. 9415
     Using radial grid of 1205 points,  6 beta functions with: 
                l(1) =   0
                l(2) =   0
                l(3) =   1
                l(4) =   1
                l(5) =   2
                l(6) =   2
     Q(r) pseudized with 0 coefficients 


     PseudoPot. # 2 for As read from file:
     /home/paolo/project_labqsm/pseudopotentials/As.pbe-n-rrkjus_psl.0.2.UPF
     MD5 check sum: f98050c7212d27f7cb33035312670de9
     Pseudo is Ultrasoft + core correction, Zval =  5.0
     Generated using "atomic" code by A. Dal Corso  v.5.0.2 svn rev. 9415
     Using radial grid of 1209 points,  4 beta functions with: 
                l(1) =   0
                l(2) =   0
                l(3) =   1
                l(4) =   1
     Q(r) pseudized with 0 coefficients 


     atomic species   valence    mass     pseudopotential
        Ga            13.00    69.72300     Ga( 1.00)
        As             5.00    74.92200     As( 1.00)

     24 Sym. Ops. (no inversion) found



   Cartesian axes

     site n.     atom                  positions (alat units)
         1           Ga  tau(   1) = (   0.0000000   0.0000000   0.0000000  )
         2           As  tau(   2) = (   0.2500000   0.2500000   0.2500000  )

     number of k points=    72
                       cart. coord. in units 2pi/alat
        k(    1) = (   0.0000000   0.0000000   0.0000000), wk =   0.0011574
        k(    2) = (  -0.0833333   0.0833333  -0.0833333), wk =   0.0092593
        k(    3) = (  -0.1666667   0.1666667  -0.1666667), wk =   0.0092593
        k(    4) = (  -0.2500000   0.2500000  -0.2500000), wk =   0.0092593
        k(    5) = (  -0.3333333   0.3333333  -0.3333333), wk =   0.0092593
        k(    6) = (  -0.4166667   0.4166667  -0.4166667), wk =   0.0092593
        k(    7) = (   0.5000000  -0.5000000   0.5000000), wk =   0.0046296
        k(    8) = (   0.0000000   0.1666667   0.0000000), wk =   0.0069444
        k(    9) = (  -0.0833333   0.2500000  -0.0833333), wk =   0.0277778
        k(   10) = (  -0.1666667   0.3333333  -0.1666667), wk =   0.0277778
        k(   11) = (  -0.2500000   0.4166667  -0.2500000), wk =   0.0277778
        k(   12) = (  -0.3333333   0.5000000  -0.3333333), wk =   0.0277778
        k(   13) = (   0.5833333  -0.4166667   0.5833333), wk =   0.0277778
        k(   14) = (   0.5000000  -0.3333333   0.5000000), wk =   0.0277778
        k(   15) = (   0.4166667  -0.2500000   0.4166667), wk =   0.0277778
        k(   16) = (   0.3333333  -0.1666667   0.3333333), wk =   0.0277778
        k(   17) = (   0.2500000  -0.0833333   0.2500000), wk =   0.0277778
        k(   18) = (   0.1666667  -0.0000000   0.1666667), wk =   0.0138889
        k(   19) = (   0.0000000   0.3333333   0.0000000), wk =   0.0069444
        k(   20) = (  -0.0833333   0.4166667  -0.0833333), wk =   0.0277778
        k(   21) = (  -0.1666667   0.5000000  -0.1666667), wk =   0.0277778
        k(   22) = (  -0.2500000   0.5833333  -0.2500000), wk =   0.0277778
        k(   23) = (   0.6666667  -0.3333333   0.6666667), wk =   0.0277778
        k(   24) = (   0.5833333  -0.2500000   0.5833333), wk =   0.0277778
        k(   25) = (   0.5000000  -0.1666667   0.5000000), wk =   0.0277778
        k(   26) = (   0.4166667  -0.0833333   0.4166667), wk =   0.0277778
        k(   27) = (   0.3333333   0.0000000   0.3333333), wk =   0.0138889
        k(   28) = (   0.0000000   0.5000000   0.0000000), wk =   0.0069444
        k(   29) = (  -0.0833333   0.5833333  -0.0833333), wk =   0.0277778
        k(   30) = (  -0.1666667   0.6666667  -0.1666667), wk =   0.0277778
        k(   31) = (   0.7500000  -0.2500000   0.7500000), wk =   0.0277778
        k(   32) = (   0.6666667  -0.1666667   0.6666667), wk =   0.0277778
        k(   33) = (   0.5833333  -0.0833333   0.5833333), wk =   0.0277778
        k(   34) = (   0.5000000   0.0000000   0.5000000), wk =   0.0138889
        k(   35) = (   0.0000000   0.6666667   0.0000000), wk =   0.0069444
        k(   36) = (  -0.0833333   0.7500000  -0.0833333), wk =   0.0277778
        k(   37) = (   0.8333333  -0.1666667   0.8333333), wk =   0.0277778
        k(   38) = (   0.7500000  -0.0833333   0.7500000), wk =   0.0277778
        k(   39) = (   0.6666667  -0.0000000   0.6666667), wk =   0.0138889
        k(   40) = (   0.0000000   0.8333333   0.0000000), wk =   0.0069444
        k(   41) = (   0.9166667  -0.0833333   0.9166667), wk =   0.0277778
        k(   42) = (   0.8333333   0.0000000   0.8333333), wk =   0.0138889
        k(   43) = (   0.0000000  -1.0000000   0.0000000), wk =   0.0034722
        k(   44) = (  -0.1666667   0.3333333   0.0000000), wk =   0.0277778
        k(   45) = (  -0.2500000   0.4166667  -0.0833333), wk =   0.0555556
        k(   46) = (  -0.3333333   0.5000000  -0.1666667), wk =   0.0555556
        k(   47) = (   0.5833333  -0.4166667   0.7500000), wk =   0.0555556
        k(   48) = (   0.5000000  -0.3333333   0.6666667), wk =   0.0277778
        k(   49) = (  -0.1666667   0.5000000   0.0000000), wk =   0.0277778
        k(   50) = (  -0.2500000   0.5833333  -0.0833333), wk =   0.0555556
        k(   51) = (   0.6666667  -0.3333333   0.8333333), wk =   0.0555556
        k(   52) = (   0.5833333  -0.2500000   0.7500000), wk =   0.0555556
        k(   53) = (   0.5000000  -0.1666667   0.6666667), wk =   0.0555556
        k(   54) = (   0.4166667  -0.0833333   0.5833333), wk =   0.0555556
        k(   55) = (   0.3333333   0.0000000   0.5000000), wk =   0.0277778
        k(   56) = (  -0.1666667   0.6666667  -0.0000000), wk =   0.0277778
        k(   57) = (   0.7500000  -0.2500000   0.9166667), wk =   0.0555556
        k(   58) = (   0.6666667  -0.1666667   0.8333333), wk =   0.0555556
        k(   59) = (   0.5833333  -0.0833333   0.7500000), wk =   0.0555556
        k(   60) = (   0.5000000   0.0000000   0.6666667), wk =   0.0277778
        k(   61) = (   0.8333333  -0.1666667   1.0000000), wk =   0.0277778
        k(   62) = (   0.7500000  -0.0833333   0.9166667), wk =   0.0555556
        k(   63) = (   0.6666667   0.0000000   0.8333333), wk =   0.0277778
        k(   64) = (  -0.1666667  -1.0000000  -0.0000000), wk =   0.0138889
        k(   65) = (   0.6666667  -0.3333333   1.0000000), wk =   0.0277778
        k(   66) = (   0.5833333  -0.2500000   0.9166667), wk =   0.0555556
        k(   67) = (   0.5000000  -0.1666667   0.8333333), wk =   0.0277778
        k(   68) = (   0.6666667  -0.1666667   1.0000000), wk =   0.0277778
        k(   69) = (   0.5833333  -0.0833333   0.9166667), wk =   0.0555556
        k(   70) = (   0.5000000   0.0000000   0.8333333), wk =   0.0277778
        k(   71) = (  -0.3333333  -1.0000000   0.0000000), wk =   0.0138889
        k(   72) = (  -0.5000000  -1.0000000   0.0000000), wk =   0.0069444

     Dense  grid:    30827 G-vectors     FFT dimensions: (  45,  45,  45)

     Smooth grid:     7799 G-vectors     FFT dimensions: (  27,  27,  27)

     Estimated max dynamical RAM per process >     120.89 MB

     Initial potential from superposition of free atoms

     starting charge      17.9968, renormalised to      18.0000
     Starting wfcs are   13 randomized atomic wfcs

     total cpu time spent up to now is        1.2 secs

     Self-consistent Calculation

     iteration #  1     ecut=    33.00 Ry     beta= 0.70
     Davidson diagonalization with overlap
     ethr =  1.00E-02,  avg # of iterations =  1.4

     Threshold (ethr) on eigenvalues was too large:
     Diagonalizing with lowered threshold

     Davidson diagonalization with overlap
     ethr =  2.90E-04,  avg # of iterations =  2.0

     total cpu time spent up to now is        3.5 secs

     total energy              =    -191.00859720 Ry
     estimated scf accuracy    <       0.05036492 Ry

     iteration #  2     ecut=    33.00 Ry     beta= 0.70
     Davidson diagonalization with overlap
     ethr =  2.80E-04,  avg # of iterations =  2.4

     total cpu time spent up to now is        4.9 secs

     total energy              =    -191.01865045 Ry
     estimated scf accuracy    <       0.00965518 Ry

     iteration #  3     ecut=    33.00 Ry     beta= 0.70
     Davidson diagonalization with overlap
     ethr =  5.36E-05,  avg # of iterations =  2.0

     total cpu time spent up to now is        6.4 secs

     total energy              =    -191.02045281 Ry
     estimated scf accuracy    <       0.00042484 Ry

     iteration #  4     ecut=    33.00 Ry     beta= 0.70
     Davidson diagonalization with overlap
     ethr =  2.36E-06,  avg # of iterations =  2.6

     total cpu time spent up to now is        7.9 secs

     total energy              =    -191.02053733 Ry
     estimated scf accuracy    <       0.00006490 Ry

     iteration #  5     ecut=    33.00 Ry     beta= 0.70
     Davidson diagonalization with overlap
     ethr =  3.61E-07,  avg # of iterations =  2.0

     total cpu time spent up to now is        9.2 secs

     total energy              =    -191.02053345 Ry
     estimated scf accuracy    <       0.00001372 Ry

     iteration #  6     ecut=    33.00 Ry     beta= 0.70
     Davidson diagonalization with overlap
     ethr =  7.62E-08,  avg # of iterations =  3.4

     total cpu time spent up to now is       10.7 secs

     total energy              =    -191.02053736 Ry
     estimated scf accuracy    <       0.00001192 Ry

     iteration #  7     ecut=    33.00 Ry     beta= 0.70
     Davidson diagonalization with overlap
     ethr =  6.62E-08,  avg # of iterations =  2.0

     total cpu time spent up to now is       12.0 secs

     total energy              =    -191.02053937 Ry
     estimated scf accuracy    <       0.00000005 Ry

     iteration #  8     ecut=    33.00 Ry     beta= 0.70
     Davidson diagonalization with overlap
     ethr =  2.61E-10,  avg # of iterations =  5.4

     total cpu time spent up to now is       13.9 secs

     total energy              =    -191.02053946 Ry
     estimated scf accuracy    <       0.00000009 Ry

     iteration #  9     ecut=    33.00 Ry     beta= 0.70
     Davidson diagonalization with overlap
     ethr =  2.61E-10,  avg # of iterations =  2.1

     total cpu time spent up to now is       15.3 secs

     End of self-consistent calculation

          k = 0.0000 0.0000 0.0000 (   941 PWs)   bands (ev):

    -8.0123  -8.0123  -8.0123  -7.9332  -7.9332  -5.9578   6.7767   6.7767
     6.7767

          k =-0.0833 0.0833-0.0833 (   950 PWs)   bands (ev):

    -8.0185  -8.0106  -8.0106  -7.9332  -7.9332  -5.8761   5.5638   6.6625
     6.6625

          k =-0.1667 0.1667-0.1667 (   956 PWs)   bands (ev):

    -8.0347  -8.0063  -8.0063  -7.9332  -7.9332  -5.6379   4.0619   6.3943
     6.3943

          k =-0.2500 0.2500-0.2500 (   962 PWs)   bands (ev):

    -8.0550  -8.0010  -8.0010  -7.9325  -7.9325  -5.2664   2.6321   6.0960
     6.0960

          k =-0.3333 0.3333-0.3333 (   968 PWs)   bands (ev):

    -8.0738  -7.9964  -7.9964  -7.9310  -7.9310  -4.8118   1.3903   5.8474
     5.8474

          k =-0.4167 0.4167-0.4167 (   972 PWs)   bands (ev):

    -8.0867  -7.9937  -7.9937  -7.9293  -7.9293  -4.3857   0.4811   5.6873
     5.6873

          k = 0.5000-0.5000 0.5000 (   978 PWs)   bands (ev):

    -8.0913  -7.9928  -7.9928  -7.9285  -7.9285  -4.1956   0.1281   5.6324
     5.6324

          k = 0.0000 0.1667 0.0000 (   953 PWs)   bands (ev):

    -8.0223  -8.0091  -8.0091  -7.9344  -7.9322  -5.8488   5.5148   6.4423
     6.4423

          k =-0.0833 0.2500-0.0833 (   960 PWs)   bands (ev):

    -8.0354  -8.0056  -8.0048  -7.9356  -7.9313  -5.6628   4.3852   6.1196
     6.2046

          k =-0.1667 0.3333-0.1667 (   963 PWs)   bands (ev):

    -8.0534  -8.0012  -7.9993  -7.9361  -7.9302  -5.3347   3.0315   5.8128
     5.8797

          k =-0.2500 0.4167-0.2500 (   970 PWs)   bands (ev):

    -8.0714  -7.9968  -7.9945  -7.9352  -7.9290  -4.9034   1.7669   5.5278
     5.5882

          k =-0.3333 0.5000-0.3333 (   976 PWs)   bands (ev):

    -8.0853  -7.9936  -7.9916  -7.9331  -7.9280  -4.4540   0.7542   5.2341
     5.4759

          k = 0.5833-0.4167 0.5833 (   978 PWs)   bands (ev):

    -8.0921  -7.9920  -7.9906  -7.9307  -7.9282  -4.1627   0.2020   5.0401
     5.4851

          k = 0.5000-0.3333 0.5000 (   977 PWs)   bands (ev):

    -8.0905  -7.9919  -7.9914  -7.9299  -7.9294  -4.2283   0.3210   4.9668
     5.6118

          k = 0.4167-0.2500 0.4167 (   973 PWs)   bands (ev):

    -8.0808  -7.9942  -7.9934  -7.9324  -7.9295  -4.5983   1.0559   5.0262
     5.8399

          k = 0.3333-0.1667 0.3333 (   961 PWs)   bands (ev):

    -8.0648  -7.9988  -7.9966  -7.9344  -7.9305  -5.0558   2.1688   5.2256
     6.1376

          k = 0.2500-0.0833 0.2500 (   966 PWs)   bands (ev):

    -8.0458  -8.0043  -8.0013  -7.9349  -7.9315  -5.4588   3.4632   5.5722
     6.4455

          k = 0.1667-0.0000 0.1667 (   963 PWs)   bands (ev):

    -8.0286  -8.0088  -8.0065  -7.9343  -7.9323  -5.7421   4.7230   6.0899
     6.6602

          k = 0.0000 0.3333 0.0000 (   966 PWs)   bands (ev):

    -8.0469  -8.0003  -8.0003  -7.9384  -7.9296  -5.5312   4.0673   5.7599
     5.7599

          k =-0.0833 0.4167-0.0833 (   976 PWs)   bands (ev):

    -8.0621  -7.9953  -7.9944  -7.9406  -7.9280  -5.2544   3.1302   5.3782
     5.4327

          k =-0.1667 0.5000-0.1667 (   977 PWs)   bands (ev):

    -8.0772  -7.9916  -7.9891  -7.9411  -7.9267  -4.8616   2.0323   4.9108
     5.2025

          k =-0.2500 0.5833-0.2500 (   983 PWs)   bands (ev):

    -8.0891  -7.9894  -7.9857  -7.9394  -7.9261  -4.4184   1.0409   4.4687
     5.0994

          k = 0.6667-0.3333 0.6667 (   980 PWs)   bands (ev):

    -8.0957  -7.9886  -7.9845  -7.9364  -7.9270  -4.0647   0.3779   4.1339
     5.1328

          k = 0.5833-0.2500 0.5833 (   975 PWs)   bands (ev):

    -8.0957  -7.9889  -7.9854  -7.9333  -7.9296  -4.0073   0.2822   3.9458
     5.2972

          k = 0.5000-0.1667 0.5000 (   975 PWs)   bands (ev):

    -8.0890  -7.9900  -7.9884  -7.9328  -7.9312  -4.2904   0.7957   3.9351
     5.5718

          k = 0.4167-0.0833 0.4167 (   971 PWs)   bands (ev):

    -8.0769  -7.9934  -7.9922  -7.9353  -7.9305  -4.7246   1.6834   4.1484
     5.9144

          k = 0.3333 0.0000 0.3333 (   975 PWs)   bands (ev):

    -8.0614  -7.9994  -7.9961  -7.9359  -7.9307  -5.1418   2.6540   4.6767
     6.2472

          k = 0.0000 0.5000 0.0000 (   982 PWs)   bands (ev):

    -8.0757  -7.9880  -7.9880  -7.9446  -7.9260  -5.0315   2.6837   5.0809
     5.0809

          k =-0.0833 0.5833-0.0833 (   980 PWs)   bands (ev):

    -8.0888  -7.9830  -7.9821  -7.9470  -7.9244  -4.6884   1.9144   4.6445
     4.8278

          k =-0.1667 0.6667-0.1667 (   982 PWs)   bands (ev):

    -8.0983  -7.9812  -7.9781  -7.9466  -7.9238  -4.2768   1.1145   4.0560
     4.7075

          k = 0.7500-0.2500 0.7500 (   977 PWs)   bands (ev):

    -8.1031  -7.9819  -7.9766  -7.9437  -7.9250  -3.9068   0.4960   3.5330
     4.7320

          k = 0.6667-0.1667 0.6667 (   973 PWs)   bands (ev):

    -8.1026  -7.9838  -7.9776  -7.9396  -7.9280  -3.7607   0.2818   3.1947
     4.8981

          k = 0.5833-0.0833 0.5833 (   982 PWs)   bands (ev):

    -8.0973  -7.9862  -7.9811  -7.9354  -7.9317  -3.9411   0.5629   3.1169
     5.1860

          k = 0.5000 0.0000 0.5000 (   975 PWs)   bands (ev):

    -8.0883  -7.9889  -7.9868  -7.9344  -7.9322  -4.3200   1.1252   3.4037
     5.5524

          k = 0.0000 0.6667 0.0000 (   974 PWs)   bands (ev):

    -8.1008  -7.9755  -7.9755  -7.9514  -7.9224  -4.4017   1.4155   4.5450
     4.5450

          k =-0.0833 0.7500-0.0833 (   983 PWs)   bands (ev):

    -8.1092  -7.9721  -7.9710  -7.9528  -7.9214  -4.0455   0.8256   4.1235
     4.3941

          k = 0.8333-0.1667 0.8333 (   975 PWs)   bands (ev):

    -8.1125  -7.9734  -7.9693  -7.9507  -7.9223  -3.7115   0.3615   3.4958
     4.3917

          k = 0.7500-0.0833 0.7500 (   976 PWs)   bands (ev):

    -8.1106  -7.9771  -7.9704  -7.9464  -7.9252  -3.5459   0.1798   2.9813
     4.5376

          k = 0.6667-0.0000 0.6667 (   981 PWs)   bands (ev):

    -8.1050  -7.9818  -7.9746  -7.9409  -7.9289  -3.6467   0.3105   2.7986
     4.8154

          k = 0.0000 0.8333 0.0000 (   990 PWs)   bands (ev):

    -8.1174  -7.9661  -7.9661  -7.9566  -7.9198  -3.7688   0.3935   4.2076
     4.2076

          k = 0.9167-0.0833 0.9167 (   977 PWs)   bands (ev):

    -8.1202  -7.9661  -7.9643  -7.9560  -7.9199  -3.5334   0.0844   3.8562
     4.1696

          k = 0.8333 0.0000 0.8333 (   981 PWs)   bands (ev):

    -8.1174  -7.9706  -7.9658  -7.9522  -7.9220  -3.4473   0.0348   3.3035
     4.2836

          k = 0.0000-1.0000 0.0000 (   982 PWs)   bands (ev):

    -8.1232  -7.9627  -7.9627  -7.9586  -7.9188  -3.4576  -0.0490   4.0929
     4.0929

          k =-0.1667 0.3333 0.0000 (   964 PWs)   bands (ev):

    -8.0498  -8.0015  -7.9993  -7.9373  -7.9300  -5.4313   3.5522   5.3894
     6.1135

          k =-0.2500 0.4167-0.0833 (   966 PWs)   bands (ev):

    -8.0663  -7.9967  -7.9941  -7.9380  -7.9289  -5.0701   2.4602   4.8372
     5.8649

          k =-0.3333 0.5000-0.1667 (   978 PWs)   bands (ev):

    -8.0812  -7.9928  -7.9899  -7.9369  -7.9281  -4.6289   1.3780   4.5052
     5.5683

          k = 0.5833-0.4167 0.7500 (   977 PWs)   bands (ev):

    -8.0915  -7.9907  -7.9873  -7.9345  -7.9282  -4.2172   0.5467   4.3320
     5.3454

          k = 0.5000-0.3333 0.6667 (   970 PWs)   bands (ev):

    -8.0951  -7.9901  -7.9864  -7.9328  -7.9287  -4.0344   0.2193   4.2792
     5.2633

          k =-0.1667 0.5000 0.0000 (   977 PWs)   bands (ev):

    -8.0762  -7.9901  -7.9884  -7.9429  -7.9265  -4.9439   2.3846   4.7129
     5.2937

          k =-0.2500 0.5833-0.0833 (   977 PWs)   bands (ev):

    -8.0884  -7.9871  -7.9834  -7.9431  -7.9257  -4.5385   1.5192   4.1746
     5.0387

          k = 0.6667-0.3333 0.8333 (   986 PWs)   bands (ev):

    -8.0968  -7.9862  -7.9802  -7.9411  -7.9261  -4.1224   0.7438   3.7862
     4.8514

          k = 0.5833-0.2500 0.7500 (   971 PWs)   bands (ev):

    -8.1001  -7.9865  -7.9792  -7.9382  -7.9279  -3.8608   0.3090   3.5353
     4.8329

          k = 0.5000-0.1667 0.6667 (   977 PWs)   bands (ev):

    -8.0980  -7.9875  -7.9805  -7.9365  -7.9295  -3.9265   0.4198   3.4456
     4.9878

          k = 0.4167-0.0833 0.5833 (   978 PWs)   bands (ev):

    -8.0908  -7.9891  -7.9840  -7.9376  -7.9291  -4.2686   1.0008   3.5750
     5.2749

          k = 0.3333 0.0000 0.5000 (   976 PWs)   bands (ev):

    -8.0797  -7.9920  -7.9889  -7.9386  -7.9286  -4.6938   1.7633   4.0178
     5.6149

          k =-0.1667 0.6667-0.0000 (   982 PWs)   bands (ev):

    -8.0994  -7.9789  -7.9764  -7.9489  -7.9232  -4.3347   1.2866   4.2006
     4.5829

          k = 0.7500-0.2500 0.9167 (   982 PWs)   bands (ev):

    -8.1058  -7.9785  -7.9729  -7.9479  -7.9236  -3.9508   0.6911   3.6693
     4.3901

          k = 0.6667-0.1667 0.8333 (   977 PWs)   bands (ev):

    -8.1074  -7.9804  -7.9719  -7.9447  -7.9257  -3.6681   0.3060   3.1922
     4.3930

          k = 0.5833-0.0833 0.7500 (   975 PWs)   bands (ev):

    -8.1048  -7.9833  -7.9735  -7.9408  -7.9287  -3.6462   0.2917   2.9356
     4.5761

          k = 0.5000 0.0000 0.6667 (   984 PWs)   bands (ev):

    -8.0989  -7.9862  -7.9778  -7.9382  -7.9302  -3.8963   0.6017   3.0301
     4.8954

          k = 0.8333-0.1667 1.0000 (   982 PWs)   bands (ev):

    -8.1148  -7.9704  -7.9676  -7.9533  -7.9212  -3.7325   0.3845   3.9085
     4.0980

          k = 0.7500-0.0833 0.9167 (   977 PWs)   bands (ev):

    -8.1151  -7.9730  -7.9668  -7.9505  -7.9228  -3.5042   0.1317   3.3867
     4.0571

          k = 0.6667 0.0000 0.8333 (   982 PWs)   bands (ev):

    -8.1112  -7.9780  -7.9687  -7.9461  -7.9259  -3.4734   0.1392   2.9544
     4.2440

          k =-0.1667-1.0000-0.0000 (   978 PWs)   bands (ev):

    -8.1202  -7.9670  -7.9647  -7.9545  -7.9205  -3.4430  -0.0071   3.8476
     3.8942

          k = 0.6667-0.3333 1.0000 (   983 PWs)   bands (ev):

    -8.0973  -7.9850  -7.9778  -7.9432  -7.9262  -4.1501   0.9668   3.5582
     4.7205

          k = 0.5833-0.2500 0.9167 (   975 PWs)   bands (ev):

    -8.1028  -7.9845  -7.9741  -7.9418  -7.9276  -3.7977   0.4799   3.2142
     4.4266

          k = 0.5000-0.1667 0.8333 (   976 PWs)   bands (ev):

    -8.1046  -7.9845  -7.9728  -7.9407  -7.9285  -3.6457   0.2735   3.1100
     4.3121

          k = 0.6667-0.1667 1.0000 (   972 PWs)   bands (ev):

    -8.1094  -7.9789  -7.9693  -7.9468  -7.9250  -3.6417   0.3439   3.3635
     3.9640

          k = 0.5833-0.0833 0.9167 (   978 PWs)   bands (ev):

    -8.1095  -7.9809  -7.9682  -7.9443  -7.9272  -3.4743   0.1809   3.0933
     3.8257

          k = 0.5000 0.0000 0.8333 (   977 PWs)   bands (ev):

    -8.1070  -7.9829  -7.9698  -7.9424  -7.9284  -3.5411   0.2568   2.9826
     4.0281

          k =-0.3333-1.0000 0.0000 (   978 PWs)   bands (ev):

    -8.1136  -7.9763  -7.9665  -7.9479  -7.9248  -3.4134   0.0844   3.4259
     3.5635

          k =-0.5000-1.0000 0.0000 (   992 PWs)   bands (ev):

    -8.1100  -7.9813  -7.9670  -7.9439  -7.9279  -3.3983   0.1347   3.2357
     3.4205

     highest occupied level (ev):     6.7767

!    total energy              =    -191.02053947 Ry
     estimated scf accuracy    <          4.4E-09 Ry

     The total energy is the sum of the following terms:
     one-electron contribution =    -111.77653140 Ry
     hartree contribution      =      71.69502893 Ry
     xc contribution           =     -57.91986593 Ry
     ewald contribution        =     -93.01917106 Ry

     convergence has been achieved in   9 iterations

     Writing all to output data dir ./SCRATCH/gallium_arsenide.save/

     init_run     :      0.95s CPU      1.12s WALL (       1 calls)
     electrons    :     12.17s CPU     14.09s WALL (       1 calls)

     Called by init_run:
     wfcinit      :      0.50s CPU      0.52s WALL (       1 calls)
     potinit      :      0.03s CPU      0.06s WALL (       1 calls)
     hinit0       :      0.34s CPU      0.37s WALL (       1 calls)

     Called by electrons:
     c_bands      :      9.34s CPU      9.77s WALL (      10 calls)
     sum_band     :      2.05s CPU      2.89s WALL (      10 calls)
     v_of_rho     :      0.25s CPU      0.29s WALL (      10 calls)
     newd         :      0.56s CPU      1.29s WALL (      10 calls)
     mix_rho      :      0.02s CPU      0.02s WALL (      10 calls)

     Called by c_bands:
     init_us_2    :      0.38s CPU      0.31s WALL (    1512 calls)
     init_us_2:cp :      0.38s CPU      0.30s WALL (    1512 calls)
     cegterg      :      8.92s CPU      9.20s WALL (     720 calls)

     Called by *egterg:
     cdiaghg      :      0.19s CPU      0.15s WALL (    2469 calls)
     h_psi        :      7.73s CPU      7.90s WALL (    2613 calls)
     s_psi        :      0.36s CPU      0.37s WALL (    2613 calls)
     g_psi        :      0.03s CPU      0.03s WALL (    1821 calls)

     Called by h_psi:
     h_psi:calbec :      0.56s CPU      0.50s WALL (    2613 calls)
     vloc_psi     :      6.80s CPU      6.97s WALL (    2613 calls)
     add_vuspsi   :      0.33s CPU      0.37s WALL (    2613 calls)

     General routines
     calbec       :      0.83s CPU      0.66s WALL (    3333 calls)
     fft          :      0.17s CPU      0.14s WALL (     129 calls)
     ffts         :      0.02s CPU      0.01s WALL (      20 calls)
     fftw         :      6.69s CPU      7.00s WALL (   44072 calls)
     interpolate  :      0.03s CPU      0.02s WALL (      10 calls)


     PWSCF        :     13.19s CPU     15.34s WALL


   This run was terminated on:  11: 8:59  11Jun2024            

=------------------------------------------------------------------------------=
   JOB DONE.
=------------------------------------------------------------------------------=
