
     Program PWSCF v.7.2 starts on 11Jun2024 at 11: 8:25 

     This program is part of the open-source Quantum ESPRESSO suite
     for quantum simulation of materials; please cite
         "P. Giannozzi et al., J. Phys.:Condens. Matter 21 395502 (2009);
         "P. Giannozzi et al., J. Phys.:Condens. Matter 29 465901 (2017);
         "P. Giannozzi et al., J. Chem. Phys. 152 154105 (2020);
          URL http://www.quantum-espresso.org", 
     in publications or presentations arising from this work. More details at
     http://www.quantum-espresso.org/quote

     Serial version
     8991 MiB available memory on the printing compute node when the environment starts

     Waiting for input...
     Reading input from standard input

     Current dimensions of program PWSCF are:
     Max number of different atomic species (ntypx) = 10
     Max number of k-points (npk) =  40000
     Max angular momentum in pseudopotentials (lmaxx) =  4
     file Ga.pbe-dn-rrkjus_psl.0.2.UPF: wavefunction(s)  4S 3D renormalized


     G-vector sticks info
     --------------------
     sticks:   dense  smooth     PW     G-vecs:    dense   smooth      PW
     Sum        1285     511    163                30827     7799    1363

     Using Slab Decomposition



     bravais-lattice index     =            2
     lattice parameter (alat)  =      10.6829  a.u.
     unit-cell volume          =     304.7951 (a.u.)^3
     number of atoms/cell      =            2
     number of atomic types    =            2
     number of electrons       =        18.00
     number of Kohn-Sham states=            9
     kinetic-energy cutoff     =      33.0000  Ry
     charge density cutoff     =     330.0000  Ry
     scf convergence threshold =      1.0E-08
     mixing beta               =       0.7000
     number of iterations used =            8  plain     mixing
     Exchange-correlation= PBE
                           (   1   4   3   4   0   0   0)

     celldm(1)=  10.682904  celldm(2)=   0.000000  celldm(3)=   0.000000
     celldm(4)=   0.000000  celldm(5)=   0.000000  celldm(6)=   0.000000

     crystal axes: (cart. coord. in units of alat)
               a(1) = (  -0.500000   0.000000   0.500000 )  
               a(2) = (   0.000000   0.500000   0.500000 )  
               a(3) = (  -0.500000   0.500000   0.000000 )  

     reciprocal axes: (cart. coord. in units 2 pi/alat)
               b(1) = ( -1.000000 -1.000000  1.000000 )  
               b(2) = (  1.000000  1.000000  1.000000 )  
               b(3) = ( -1.000000  1.000000 -1.000000 )  


     PseudoPot. # 1 for Ga read from file:
     /home/paolo/project_labqsm/pseudopotentials/Ga.pbe-dn-rrkjus_psl.0.2.UPF
     MD5 check sum: ffdfce4fe0c152725d7fa40f12f9e9e5
     Pseudo is Ultrasoft + core correction, Zval = 13.0
     Generated using "atomic" code by A. Dal Corso  v.5.0.2 svn rev. 9415
     Using radial grid of 1205 points,  6 beta functions with: 
                l(1) =   0
                l(2) =   0
                l(3) =   1
                l(4) =   1
                l(5) =   2
                l(6) =   2
     Q(r) pseudized with 0 coefficients 


     PseudoPot. # 2 for As read from file:
     /home/paolo/project_labqsm/pseudopotentials/As.pbe-n-rrkjus_psl.0.2.UPF
     MD5 check sum: f98050c7212d27f7cb33035312670de9
     Pseudo is Ultrasoft + core correction, Zval =  5.0
     Generated using "atomic" code by A. Dal Corso  v.5.0.2 svn rev. 9415
     Using radial grid of 1209 points,  4 beta functions with: 
                l(1) =   0
                l(2) =   0
                l(3) =   1
                l(4) =   1
     Q(r) pseudized with 0 coefficients 


     atomic species   valence    mass     pseudopotential
        Ga            13.00    69.72300     Ga( 1.00)
        As             5.00    74.92200     As( 1.00)

     24 Sym. Ops. (no inversion) found



   Cartesian axes

     site n.     atom                  positions (alat units)
         1           Ga  tau(   1) = (   0.0000000   0.0000000   0.0000000  )
         2           As  tau(   2) = (   0.2500000   0.2500000   0.2500000  )

     number of k points=     8
                       cart. coord. in units 2pi/alat
        k(    1) = (   0.0000000   0.0000000   0.0000000), wk =   0.0312500
        k(    2) = (  -0.2500000   0.2500000  -0.2500000), wk =   0.2500000
        k(    3) = (   0.5000000  -0.5000000   0.5000000), wk =   0.1250000
        k(    4) = (   0.0000000   0.5000000   0.0000000), wk =   0.1875000
        k(    5) = (   0.7500000  -0.2500000   0.7500000), wk =   0.7500000
        k(    6) = (   0.5000000   0.0000000   0.5000000), wk =   0.3750000
        k(    7) = (   0.0000000  -1.0000000   0.0000000), wk =   0.0937500
        k(    8) = (  -0.5000000  -1.0000000   0.0000000), wk =   0.1875000

     Dense  grid:    30827 G-vectors     FFT dimensions: (  45,  45,  45)

     Smooth grid:     7799 G-vectors     FFT dimensions: (  27,  27,  27)

     Estimated max dynamical RAM per process >     112.31 MB

     Initial potential from superposition of free atoms

     starting charge      17.9968, renormalised to      18.0000
     Starting wfcs are   13 randomized atomic wfcs

     total cpu time spent up to now is        0.7 secs

     Self-consistent Calculation

     iteration #  1     ecut=    33.00 Ry     beta= 0.70
     Davidson diagonalization with overlap
     ethr =  1.00E-02,  avg # of iterations =  1.5

     Threshold (ethr) on eigenvalues was too large:
     Diagonalizing with lowered threshold

     Davidson diagonalization with overlap
     ethr =  3.28E-04,  avg # of iterations =  2.0

     total cpu time spent up to now is        1.4 secs

     total energy              =    -190.99368702 Ry
     estimated scf accuracy    <       0.05739988 Ry

     iteration #  2     ecut=    33.00 Ry     beta= 0.70
     Davidson diagonalization with overlap
     ethr =  3.19E-04,  avg # of iterations =  2.6

     total cpu time spent up to now is        1.8 secs

     total energy              =    -191.00509798 Ry
     estimated scf accuracy    <       0.01108815 Ry

     iteration #  3     ecut=    33.00 Ry     beta= 0.70
     Davidson diagonalization with overlap
     ethr =  6.16E-05,  avg # of iterations =  2.0

     total cpu time spent up to now is        2.2 secs

     total energy              =    -191.00721283 Ry
     estimated scf accuracy    <       0.00052199 Ry

     iteration #  4     ecut=    33.00 Ry     beta= 0.70
     Davidson diagonalization with overlap
     ethr =  2.90E-06,  avg # of iterations =  2.8

     total cpu time spent up to now is        2.6 secs

     total energy              =    -191.00732707 Ry
     estimated scf accuracy    <       0.00007679 Ry

     iteration #  5     ecut=    33.00 Ry     beta= 0.70
     Davidson diagonalization with overlap
     ethr =  4.27E-07,  avg # of iterations =  2.0

     total cpu time spent up to now is        3.0 secs

     total energy              =    -191.00732303 Ry
     estimated scf accuracy    <       0.00001684 Ry

     iteration #  6     ecut=    33.00 Ry     beta= 0.70
     Davidson diagonalization with overlap
     ethr =  9.36E-08,  avg # of iterations =  3.6

     total cpu time spent up to now is        3.5 secs

     total energy              =    -191.00732809 Ry
     estimated scf accuracy    <       0.00002005 Ry

     iteration #  7     ecut=    33.00 Ry     beta= 0.70
     Davidson diagonalization with overlap
     ethr =  9.36E-08,  avg # of iterations =  2.1

     total cpu time spent up to now is        3.9 secs

     total energy              =    -191.00732902 Ry
     estimated scf accuracy    <       0.00000160 Ry

     iteration #  8     ecut=    33.00 Ry     beta= 0.70
     Davidson diagonalization with overlap
     ethr =  8.88E-09,  avg # of iterations =  4.4

     total cpu time spent up to now is        4.3 secs

     total energy              =    -191.00732973 Ry
     estimated scf accuracy    <       0.00000019 Ry

     iteration #  9     ecut=    33.00 Ry     beta= 0.70
     Davidson diagonalization with overlap
     ethr =  1.03E-09,  avg # of iterations =  2.0

     total cpu time spent up to now is        4.7 secs

     total energy              =    -191.00732974 Ry
     estimated scf accuracy    <       0.00000001 Ry

     iteration # 10     ecut=    33.00 Ry     beta= 0.70
     Davidson diagonalization with overlap
     ethr =  7.64E-11,  avg # of iterations =  3.9

     total cpu time spent up to now is        5.1 secs

     total energy              =    -191.00732975 Ry
     estimated scf accuracy    <       0.00000001 Ry

     iteration # 11     ecut=    33.00 Ry     beta= 0.70
     Davidson diagonalization with overlap
     ethr =  5.60E-11,  avg # of iterations =  2.0

     total cpu time spent up to now is        5.5 secs

     End of self-consistent calculation

          k = 0.0000 0.0000 0.0000 (   941 PWs)   bands (ev):

    -8.0203  -8.0203  -8.0203  -7.9425  -7.9425  -5.9102   6.8272   6.8272
     6.8272

          k =-0.2500 0.2500-0.2500 (   962 PWs)   bands (ev):

    -8.0614  -8.0090  -8.0090  -7.9418  -7.9418  -5.2179   2.6679   6.1411
     6.1411

          k = 0.5000-0.5000 0.5000 (   978 PWs)   bands (ev):

    -8.0967  -8.0010  -8.0010  -7.9378  -7.9378  -4.1416   0.1550   5.6754
     5.6754

          k = 0.0000 0.5000 0.0000 (   982 PWs)   bands (ev):

    -8.0818  -7.9961  -7.9961  -7.9539  -7.9353  -4.9824   2.7207   5.1202
     5.1202

          k = 0.7500-0.2500 0.7500 (   977 PWs)   bands (ev):

    -8.1083  -7.9901  -7.9849  -7.9529  -7.9343  -3.8510   0.5223   3.5682
     4.7707

          k = 0.5000 0.0000 0.5000 (   975 PWs)   bands (ev):

    -8.0937  -7.9971  -7.9950  -7.9438  -7.9415  -4.2675   1.1554   3.4383
     5.5946

          k = 0.0000-1.0000 0.0000 (   982 PWs)   bands (ev):

    -8.1284  -7.9710  -7.9710  -7.9677  -7.9282  -3.3964  -0.0277   4.1296
     4.1296

          k =-0.5000-1.0000 0.0000 (   992 PWs)   bands (ev):

    -8.1151  -7.9896  -7.9754  -7.9530  -7.9372  -3.3367   0.1548   3.2725
     3.4530

     highest occupied level (ev):     6.8272

!    total energy              =    -191.00732975 Ry
     estimated scf accuracy    <          3.6E-10 Ry

     The total energy is the sum of the following terms:
     one-electron contribution =    -111.77241450 Ry
     hartree contribution      =      71.71586777 Ry
     xc contribution           =     -57.93161195 Ry
     ewald contribution        =     -93.01917106 Ry

     convergence has been achieved in  11 iterations

     Writing all to output data dir ./SCRATCH/gallium_arsenide.save/

     init_run     :      0.50s CPU      0.64s WALL (       1 calls)
     electrons    :      2.92s CPU      4.80s WALL (       1 calls)

     Called by init_run:
     wfcinit      :      0.05s CPU      0.06s WALL (       1 calls)
     potinit      :      0.05s CPU      0.06s WALL (       1 calls)
     hinit0       :      0.38s CPU      0.37s WALL (       1 calls)

     Called by electrons:
     c_bands      :      1.20s CPU      1.26s WALL (      12 calls)
     sum_band     :      0.86s CPU      1.79s WALL (      12 calls)
     v_of_rho     :      0.36s CPU      0.34s WALL (      12 calls)
     newd         :      0.55s CPU      1.54s WALL (      12 calls)
     mix_rho      :      0.02s CPU      0.03s WALL (      12 calls)

     Called by c_bands:
     init_us_2    :      0.05s CPU      0.04s WALL (     200 calls)
     init_us_2:cp :      0.05s CPU      0.04s WALL (     200 calls)
     cegterg      :      1.17s CPU      1.18s WALL (      96 calls)

     Called by *egterg:
     cdiaghg      :      0.00s CPU      0.02s WALL (     335 calls)
     h_psi        :      0.89s CPU      1.01s WALL (     351 calls)
     s_psi        :      0.09s CPU      0.05s WALL (     351 calls)
     g_psi        :      0.02s CPU      0.00s WALL (     247 calls)

     Called by h_psi:
     h_psi:calbec :      0.06s CPU      0.06s WALL (     351 calls)
     vloc_psi     :      0.73s CPU      0.89s WALL (     351 calls)
     add_vuspsi   :      0.09s CPU      0.05s WALL (     351 calls)

     General routines
     calbec       :      0.06s CPU      0.09s WALL (     447 calls)
     fft          :      0.16s CPU      0.17s WALL (     155 calls)
     ffts         :      0.00s CPU      0.01s WALL (      24 calls)
     fftw         :      0.83s CPU      0.90s WALL (    5658 calls)
     interpolate  :      0.00s CPU      0.02s WALL (      12 calls)


     PWSCF        :      3.50s CPU      5.55s WALL


   This run was terminated on:  11: 8:31  11Jun2024            

=------------------------------------------------------------------------------=
   JOB DONE.
=------------------------------------------------------------------------------=
