
     Program PWSCF v.7.2 starts on 11Jun2024 at 11: 8:31 

     This program is part of the open-source Quantum ESPRESSO suite
     for quantum simulation of materials; please cite
         "P. Giannozzi et al., J. Phys.:Condens. Matter 21 395502 (2009);
         "P. Giannozzi et al., J. Phys.:Condens. Matter 29 465901 (2017);
         "P. Giannozzi et al., J. Chem. Phys. 152 154105 (2020);
          URL http://www.quantum-espresso.org", 
     in publications or presentations arising from this work. More details at
     http://www.quantum-espresso.org/quote

     Serial version
     9014 MiB available memory on the printing compute node when the environment starts

     Waiting for input...
     Reading input from standard input

     Current dimensions of program PWSCF are:
     Max number of different atomic species (ntypx) = 10
     Max number of k-points (npk) =  40000
     Max angular momentum in pseudopotentials (lmaxx) =  4
     file Ga.pbe-dn-rrkjus_psl.0.2.UPF: wavefunction(s)  4S 3D renormalized


     G-vector sticks info
     --------------------
     sticks:   dense  smooth     PW     G-vecs:    dense   smooth      PW
     Sum        1285     511    163                30827     7799    1411

     Using Slab Decomposition



     bravais-lattice index     =            2
     lattice parameter (alat)  =      10.6829  a.u.
     unit-cell volume          =     304.7951 (a.u.)^3
     number of atoms/cell      =            2
     number of atomic types    =            2
     number of electrons       =        18.00
     number of Kohn-Sham states=            9
     kinetic-energy cutoff     =      33.0000  Ry
     charge density cutoff     =     330.0000  Ry
     scf convergence threshold =      1.0E-08
     mixing beta               =       0.7000
     number of iterations used =            8  plain     mixing
     Exchange-correlation= PBE
                           (   1   4   3   4   0   0   0)

     celldm(1)=  10.682904  celldm(2)=   0.000000  celldm(3)=   0.000000
     celldm(4)=   0.000000  celldm(5)=   0.000000  celldm(6)=   0.000000

     crystal axes: (cart. coord. in units of alat)
               a(1) = (  -0.500000   0.000000   0.500000 )  
               a(2) = (   0.000000   0.500000   0.500000 )  
               a(3) = (  -0.500000   0.500000   0.000000 )  

     reciprocal axes: (cart. coord. in units 2 pi/alat)
               b(1) = ( -1.000000 -1.000000  1.000000 )  
               b(2) = (  1.000000  1.000000  1.000000 )  
               b(3) = ( -1.000000  1.000000 -1.000000 )  


     PseudoPot. # 1 for Ga read from file:
     /home/paolo/project_labqsm/pseudopotentials/Ga.pbe-dn-rrkjus_psl.0.2.UPF
     MD5 check sum: ffdfce4fe0c152725d7fa40f12f9e9e5
     Pseudo is Ultrasoft + core correction, Zval = 13.0
     Generated using "atomic" code by A. Dal Corso  v.5.0.2 svn rev. 9415
     Using radial grid of 1205 points,  6 beta functions with: 
                l(1) =   0
                l(2) =   0
                l(3) =   1
                l(4) =   1
                l(5) =   2
                l(6) =   2
     Q(r) pseudized with 0 coefficients 


     PseudoPot. # 2 for As read from file:
     /home/paolo/project_labqsm/pseudopotentials/As.pbe-n-rrkjus_psl.0.2.UPF
     MD5 check sum: f98050c7212d27f7cb33035312670de9
     Pseudo is Ultrasoft + core correction, Zval =  5.0
     Generated using "atomic" code by A. Dal Corso  v.5.0.2 svn rev. 9415
     Using radial grid of 1209 points,  4 beta functions with: 
                l(1) =   0
                l(2) =   0
                l(3) =   1
                l(4) =   1
     Q(r) pseudized with 0 coefficients 


     atomic species   valence    mass     pseudopotential
        Ga            13.00    69.72300     Ga( 1.00)
        As             5.00    74.92200     As( 1.00)

     24 Sym. Ops. (no inversion) found



   Cartesian axes

     site n.     atom                  positions (alat units)
         1           Ga  tau(   1) = (   0.0000000   0.0000000   0.0000000  )
         2           As  tau(   2) = (   0.2500000   0.2500000   0.2500000  )

     number of k points=    16
                       cart. coord. in units 2pi/alat
        k(    1) = (   0.0000000   0.0000000   0.0000000), wk =   0.0092593
        k(    2) = (  -0.1666667   0.1666667  -0.1666667), wk =   0.0740741
        k(    3) = (  -0.3333333   0.3333333  -0.3333333), wk =   0.0740741
        k(    4) = (   0.5000000  -0.5000000   0.5000000), wk =   0.0370370
        k(    5) = (   0.0000000   0.3333333   0.0000000), wk =   0.0555556
        k(    6) = (  -0.1666667   0.5000000  -0.1666667), wk =   0.2222222
        k(    7) = (   0.6666667  -0.3333333   0.6666667), wk =   0.2222222
        k(    8) = (   0.5000000  -0.1666667   0.5000000), wk =   0.2222222
        k(    9) = (   0.3333333   0.0000000   0.3333333), wk =   0.1111111
        k(   10) = (   0.0000000   0.6666667   0.0000000), wk =   0.0555556
        k(   11) = (   0.8333333  -0.1666667   0.8333333), wk =   0.2222222
        k(   12) = (   0.6666667  -0.0000000   0.6666667), wk =   0.1111111
        k(   13) = (   0.0000000  -1.0000000   0.0000000), wk =   0.0277778
        k(   14) = (   0.6666667  -0.3333333   1.0000000), wk =   0.2222222
        k(   15) = (   0.5000000  -0.1666667   0.8333333), wk =   0.2222222
        k(   16) = (  -0.3333333  -1.0000000   0.0000000), wk =   0.1111111

     Dense  grid:    30827 G-vectors     FFT dimensions: (  45,  45,  45)

     Smooth grid:     7799 G-vectors     FFT dimensions: (  27,  27,  27)

     Estimated max dynamical RAM per process >     113.38 MB

     Initial potential from superposition of free atoms

     starting charge      17.9968, renormalised to      18.0000
     Starting wfcs are   13 randomized atomic wfcs

     total cpu time spent up to now is        0.8 secs

     Self-consistent Calculation

     iteration #  1     ecut=    33.00 Ry     beta= 0.70
     Davidson diagonalization with overlap
     ethr =  1.00E-02,  avg # of iterations =  1.5

     Threshold (ethr) on eigenvalues was too large:
     Diagonalizing with lowered threshold

     Davidson diagonalization with overlap
     ethr =  2.96E-04,  avg # of iterations =  2.0

     total cpu time spent up to now is        1.6 secs

     total energy              =    -191.00642691 Ry
     estimated scf accuracy    <       0.05171447 Ry

     iteration #  2     ecut=    33.00 Ry     beta= 0.70
     Davidson diagonalization with overlap
     ethr =  2.87E-04,  avg # of iterations =  2.6

     total cpu time spent up to now is        2.2 secs

     total energy              =    -191.01675262 Ry
     estimated scf accuracy    <       0.01000903 Ry

     iteration #  3     ecut=    33.00 Ry     beta= 0.70
     Davidson diagonalization with overlap
     ethr =  5.56E-05,  avg # of iterations =  2.0

     total cpu time spent up to now is        2.8 secs

     total energy              =    -191.01861984 Ry
     estimated scf accuracy    <       0.00043608 Ry

     iteration #  4     ecut=    33.00 Ry     beta= 0.70
     Davidson diagonalization with overlap
     ethr =  2.42E-06,  avg # of iterations =  2.8

     total cpu time spent up to now is        3.3 secs

     total energy              =    -191.01870396 Ry
     estimated scf accuracy    <       0.00006809 Ry

     iteration #  5     ecut=    33.00 Ry     beta= 0.70
     Davidson diagonalization with overlap
     ethr =  3.78E-07,  avg # of iterations =  2.0

     total cpu time spent up to now is        3.9 secs

     total energy              =    -191.01870038 Ry
     estimated scf accuracy    <       0.00001379 Ry

     iteration #  6     ecut=    33.00 Ry     beta= 0.70
     Davidson diagonalization with overlap
     ethr =  7.66E-08,  avg # of iterations =  3.3

     total cpu time spent up to now is        4.4 secs

     total energy              =    -191.01870452 Ry
     estimated scf accuracy    <       0.00001071 Ry

     iteration #  7     ecut=    33.00 Ry     beta= 0.70
     Davidson diagonalization with overlap
     ethr =  5.95E-08,  avg # of iterations =  2.1

     total cpu time spent up to now is        5.0 secs

     End of self-consistent calculation

          k = 0.0000 0.0000 0.0000 (   941 PWs)   bands (ev):

    -8.0155  -8.0155  -8.0155  -7.9367  -7.9367  -5.9489   6.7862   6.7862
     6.7862

          k =-0.1667 0.1667-0.1667 (   956 PWs)   bands (ev):

    -8.0378  -8.0096  -8.0096  -7.9367  -7.9367  -5.6290   4.0691   6.4031
     6.4031

          k =-0.3333 0.3333-0.3333 (   968 PWs)   bands (ev):

    -8.0766  -7.9997  -7.9997  -7.9345  -7.9345  -4.8025   1.3960   5.8556
     5.8556

          k = 0.5000-0.5000 0.5000 (   978 PWs)   bands (ev):

    -8.0940  -7.9961  -7.9961  -7.9321  -7.9321  -4.1855   0.1328   5.6404
     5.6404

          k = 0.0000 0.3333 0.0000 (   966 PWs)   bands (ev):

    -8.0499  -8.0036  -8.0036  -7.9420  -7.9331  -5.5223   4.0747   5.7678
     5.7678

          k =-0.1667 0.5000-0.1667 (   977 PWs)   bands (ev):

    -8.0800  -7.9949  -7.9924  -7.9446  -7.9302  -4.8523   2.0385   4.9179
     5.2100

          k = 0.6667-0.3333 0.6667 (   980 PWs)   bands (ev):

    -8.0984  -7.9920  -7.9878  -7.9399  -7.9305  -4.0544   0.3826   4.1407
     5.1403

          k = 0.5000-0.1667 0.5000 (   975 PWs)   bands (ev):

    -8.0917  -7.9933  -7.9917  -7.9364  -7.9348  -4.2805   0.8008   3.9417
     5.5797

          k = 0.3333 0.0000 0.3333 (   975 PWs)   bands (ev):

    -8.0643  -8.0026  -7.9994  -7.9394  -7.9342  -5.1327   2.6606   4.6835
     6.2560

          k = 0.0000 0.6667 0.0000 (   974 PWs)   bands (ev):

    -8.1035  -7.9788  -7.9788  -7.9549  -7.9259  -4.3919   1.4212   4.5521
     4.5521

          k = 0.8333-0.1667 0.8333 (   975 PWs)   bands (ev):

    -8.1151  -7.9767  -7.9726  -7.9542  -7.9259  -3.7006   0.3658   3.5023
     4.3987

          k = 0.6667-0.0000 0.6667 (   981 PWs)   bands (ev):

    -8.1076  -7.9851  -7.9779  -7.9444  -7.9324  -3.6357   0.3145   2.8048
     4.8227

          k = 0.0000-1.0000 0.0000 (   982 PWs)   bands (ev):

    -8.1259  -7.9660  -7.9660  -7.9621  -7.9224  -3.4460  -0.0454   4.0997
     4.0997

          k = 0.6667-0.3333 1.0000 (   983 PWs)   bands (ev):

    -8.1000  -7.9883  -7.9811  -7.9467  -7.9297  -4.1400   0.9720   3.5646
     4.7276

          k = 0.5000-0.1667 0.8333 (   976 PWs)   bands (ev):

    -8.1073  -7.9878  -7.9761  -7.9443  -7.9320  -3.6347   0.2774   3.1164
     4.3189

          k =-0.3333-1.0000 0.0000 (   978 PWs)   bands (ev):

    -8.1163  -7.9796  -7.9698  -7.9514  -7.9283  -3.4017   0.0878   3.4327
     3.5696

     highest occupied level (ev):     6.7862

!    total energy              =    -191.01870661 Ry
     estimated scf accuracy    <          6.4E-09 Ry

     The total energy is the sum of the following terms:
     one-electron contribution =    -111.77577888 Ry
     hartree contribution      =      71.69831544 Ry
     xc contribution           =     -57.92207211 Ry
     ewald contribution        =     -93.01917106 Ry

     convergence has been achieved in   7 iterations

     Writing all to output data dir ./SCRATCH/gallium_arsenide.save/

     init_run     :      0.52s CPU      0.70s WALL (       1 calls)
     electrons    :      2.97s CPU      4.18s WALL (       1 calls)

     Called by init_run:
     wfcinit      :      0.11s CPU      0.11s WALL (       1 calls)
     potinit      :      0.05s CPU      0.06s WALL (       1 calls)
     hinit0       :      0.34s CPU      0.37s WALL (       1 calls)

     Called by electrons:
     c_bands      :      1.64s CPU      1.68s WALL (       8 calls)
     sum_band     :      0.77s CPU      1.35s WALL (       8 calls)
     v_of_rho     :      0.22s CPU      0.24s WALL (       8 calls)
     newd         :      0.33s CPU      1.06s WALL (       8 calls)
     mix_rho      :      0.03s CPU      0.02s WALL (       8 calls)

     Called by c_bands:
     init_us_2    :      0.00s CPU      0.06s WALL (     272 calls)
     init_us_2:cp :      0.00s CPU      0.06s WALL (     272 calls)
     cegterg      :      1.59s CPU      1.57s WALL (     128 calls)

     Called by *egterg:
     cdiaghg      :      0.00s CPU      0.02s WALL (     405 calls)
     h_psi        :      1.30s CPU      1.37s WALL (     437 calls)
     s_psi        :      0.09s CPU      0.07s WALL (     437 calls)
     g_psi        :      0.02s CPU      0.01s WALL (     293 calls)

     Called by h_psi:
     h_psi:calbec :      0.11s CPU      0.09s WALL (     437 calls)
     vloc_psi     :      1.05s CPU      1.21s WALL (     437 calls)
     add_vuspsi   :      0.14s CPU      0.07s WALL (     437 calls)

     General routines
     calbec       :      0.14s CPU      0.12s WALL (     565 calls)
     fft          :      0.09s CPU      0.12s WALL (     103 calls)
     ffts         :      0.00s CPU      0.00s WALL (      16 calls)
     fftw         :      1.08s CPU      1.22s WALL (    7616 calls)
     interpolate  :      0.02s CPU      0.01s WALL (       8 calls)


     PWSCF        :      3.55s CPU      4.99s WALL


   This run was terminated on:  11: 8:36  11Jun2024            

=------------------------------------------------------------------------------=
   JOB DONE.
=------------------------------------------------------------------------------=
