
     Program BANDS v.7.2 starts on 11Jun2024 at 13:21:55 

     This program is part of the open-source Quantum ESPRESSO suite
     for quantum simulation of materials; please cite
         "P. Giannozzi et al., J. Phys.:Condens. Matter 21 395502 (2009);
         "P. Giannozzi et al., J. Phys.:Condens. Matter 29 465901 (2017);
         "P. Giannozzi et al., J. Chem. Phys. 152 154105 (2020);
          URL http://www.quantum-espresso.org", 
     in publications or presentations arising from this work. More details at
     http://www.quantum-espresso.org/quote

     Serial version
     8298 MiB available memory on the printing compute node when the environment starts


     Reading xml data from directory:

     ./SCRATCH/gallium arsenide.save/
     file Ga.pz-dn-rrkjus_psl.0.2.UPF: wavefunction(s)  4S 3D renormalized

     IMPORTANT: XC functional enforced from input :
     Exchange-correlation= PZ
                           (   1   1   0   0   0   0   0)
     Any further DFT definition will be discarded
     Please, verify this is what you really want


     G-vector sticks info
     --------------------
     sticks:   dense  smooth     PW     G-vecs:    dense   smooth      PW
     Sum        1237     613    187                28763    10081    1687

     Using Slab Decomposition

     Reading collected, re-writing distributed wavefunctions
     high-symmetry point:  0.0000 0.0000 1.0000   x coordinate   0.0000
     high-symmetry point:  0.0000 0.0000 0.0000   x coordinate   1.0000
     high-symmetry point: -0.5000 0.5000 0.5000   x coordinate   1.8660
     high-symmetry point: -0.5000 0.0000 1.0000   x coordinate   2.5731
     high-symmetry point: -0.7500 0.0000 0.7500   x coordinate   2.9267
     high-symmetry point:  0.0000 0.0000 0.0000   x coordinate   3.9873

     Plottable bands (eV) written to file bands_gaas_13.dat.gnu
     Bands written to file bands_gaas_13.dat

 **************************************************************************

                    xk=(   0.00000,   0.00000,   1.00000  )

     point group D_2d (-42m)
     there are  5 classes
     the character table:

       E     2S4   C2    2C2'  2s_d 
A_1    1.00  1.00  1.00  1.00  1.00
A_2    1.00  1.00  1.00 -1.00 -1.00
B_1    1.00 -1.00  1.00  1.00 -1.00
B_2    1.00 -1.00  1.00 -1.00  1.00
E      2.00  0.00 -2.00  0.00  0.00

     the symmetry operations in each class and the name of the first element:

     E        1
                                                                 
     2S4      7    8
                                                                 
     C2       2
                                                                 
     2C2'     3    4
                                                                 
     2s_d     5    6
                                                                 

     Band symmetry, D_2d (-42m) point group:

     e(  1 -  1) =     -8.27246  eV     1   --> B_2  X_3  W_2  
     e(  2 -  3) =     -8.09911  eV     2   --> E    X_5  W_3  
     e(  4 -  4) =     -8.09627  eV     1   --> A_1  X_1  W_1  
     e(  5 -  5) =     -8.05270  eV     1   --> B_1  X_2  W_1' 
     e(  6 -  6) =     -3.58484  eV     1   --> B_2  X_3  W_2  
     e(  7 -  7) =     -0.22770  eV     1   --> A_1  X_1  W_1  
     e(  8 -  9) =      3.99931  eV     2   --> E    X_5  W_3  
     e( 10 - 10) =      8.07177  eV     1   --> B_2  X_3  W_2  
     e( 11 - 11) =      8.30715  eV     1   --> A_1  X_1  W_1  
     e( 12 - 13) =     17.06679  eV     2   --> E    X_5  W_3  

 **************************************************************************

 **************************************************************************

                    xk=(   0.00000,   0.00000,   0.97500  )

     point group C_2v (mm2) 
     there are  4 classes
     the character table:

       E     C2    s_v   s_v' 
A_1    1.00  1.00  1.00  1.00
A_2    1.00  1.00 -1.00 -1.00
B_1    1.00 -1.00  1.00 -1.00
B_2    1.00 -1.00 -1.00  1.00

     the symmetry operations in each class and the name of the first element:

     E        1
                                                                 
     C2       2
                                                                 
     s_v      3
                                                                 
     s_v'     4
                                                                 

     Band symmetry, C_2v (mm2)  point group:

     e(  1 -  1) =     -8.27235  eV     1   --> A_1  D_1  S_1  
     e(  2 -  3) =     -8.09940  eV     2   --> B_1  D_3  S_3  
     e(  2 -  3) =     -8.09940  eV     2   --> B_2  D_4  S_4  
     e(  4 -  4) =     -8.09629  eV     1   --> A_1  D_1  S_1  
     e(  5 -  5) =     -8.05278  eV     1   --> A_2  D_2  S_2  
     e(  6 -  6) =     -3.59342  eV     1   --> A_1  D_1  S_1  
     e(  7 -  7) =     -0.21611  eV     1   --> A_1  D_1  S_1  
     e(  8 -  9) =      4.00198  eV     2   --> B_1  D_3  S_3  
     e(  8 -  9) =      4.00198  eV     2   --> B_2  D_4  S_4  
     e( 10 - 10) =      8.06786  eV     1   --> A_1  D_1  S_1  
     e( 11 - 11) =      8.31788  eV     1   --> A_1  D_1  S_1  
     e( 12 - 13) =     17.04460  eV     2   --> B_1  D_3  S_3  
     e( 12 - 13) =     17.04460  eV     2   --> B_2  D_4  S_4  

 **************************************************************************

 **************************************************************************

                    xk=(   0.00000,   0.00000,   0.95000  )

     Band symmetry, C_2v (mm2)  point group:

     e(  1 -  1) =     -8.27203  eV     1   --> A_1  D_1  S_1  
     e(  2 -  3) =     -8.09957  eV     2   --> B_1  D_3  S_3  
     e(  2 -  3) =     -8.09957  eV     2   --> B_2  D_4  S_4  
     e(  4 -  4) =     -8.09609  eV     1   --> A_1  D_1  S_1  
     e(  5 -  5) =     -8.05281  eV     1   --> A_2  D_2  S_2  
     e(  6 -  6) =     -3.61876  eV     1   --> A_1  D_1  S_1  
     e(  7 -  7) =     -0.18173  eV     1   --> A_1  D_1  S_1  
     e(  8 -  9) =      4.01000  eV     2   --> B_1  D_3  S_3  
     e(  8 -  9) =      4.01000  eV     2   --> B_2  D_4  S_4  
     e( 10 - 10) =      8.05836  eV     1   --> A_1  D_1  S_1  
     e( 11 - 11) =      8.34785  eV     1   --> A_1  D_1  S_1  
     e( 12 - 13) =     16.98000  eV     2   --> B_1  D_3  S_3  
     e( 12 - 13) =     16.98000  eV     2   --> B_2  D_4  S_4  

 **************************************************************************

 **************************************************************************

                    xk=(   0.00000,   0.00000,   0.92500  )

     Band symmetry, C_2v (mm2)  point group:

     e(  1 -  1) =     -8.27134  eV     1   --> A_1  D_1  S_1  
     e(  2 -  3) =     -8.10000  eV     2   --> B_1  D_3  S_3  
     e(  2 -  3) =     -8.10000  eV     2   --> B_2  D_4  S_4  
     e(  4 -  4) =     -8.09584  eV     1   --> A_1  D_1  S_1  
     e(  5 -  5) =     -8.05292  eV     1   --> A_2  D_2  S_2  
     e(  6 -  6) =     -3.65981  eV     1   --> A_1  D_1  S_1  
     e(  7 -  7) =     -0.12562  eV     1   --> A_1  D_1  S_1  
     e(  8 -  9) =      4.02335  eV     2   --> B_1  D_3  S_3  
     e(  8 -  9) =      4.02335  eV     2   --> B_2  D_4  S_4  
     e( 10 - 10) =      8.04744  eV     1   --> A_1  D_1  S_1  
     e( 11 - 11) =      8.39282  eV     1   --> A_1  D_1  S_1  
     e( 12 - 13) =     16.87808  eV     2   --> B_1  D_3  S_3  
     e( 12 - 13) =     16.87808  eV     2   --> B_2  D_4  S_4  

 **************************************************************************

 **************************************************************************

                    xk=(   0.00000,   0.00000,   0.90000  )

     Band symmetry, C_2v (mm2)  point group:

     e(  1 -  1) =     -8.27037  eV     1   --> A_1  D_1  S_1  
     e(  2 -  3) =     -8.10060  eV     2   --> B_1  D_3  S_3  
     e(  2 -  3) =     -8.10060  eV     2   --> B_2  D_4  S_4  
     e(  4 -  4) =     -8.09549  eV     1   --> A_1  D_1  S_1  
     e(  5 -  5) =     -8.05309  eV     1   --> A_2  D_2  S_2  
     e(  6 -  6) =     -3.71497  eV     1   --> A_1  D_1  S_1  
     e(  7 -  7) =     -0.04942  eV     1   --> A_1  D_1  S_1  
     e(  8 -  9) =      4.04202  eV     2   --> B_1  D_3  S_3  
     e(  8 -  9) =      4.04202  eV     2   --> B_2  D_4  S_4  
     e( 10 - 10) =      8.03841  eV     1   --> A_1  D_1  S_1  
     e( 11 - 11) =      8.44939  eV     1   --> A_1  D_1  S_1  
     e( 12 - 13) =     16.74549  eV     2   --> B_1  D_3  S_3  
     e( 12 - 13) =     16.74549  eV     2   --> B_2  D_4  S_4  

 **************************************************************************

 **************************************************************************

                    xk=(   0.00000,   0.00000,   0.87500  )

     Band symmetry, C_2v (mm2)  point group:

     e(  1 -  1) =     -8.26909  eV     1   --> A_1  D_1  S_1  
     e(  2 -  3) =     -8.10131  eV     2   --> B_1  D_3  S_3  
     e(  2 -  3) =     -8.10131  eV     2   --> B_2  D_4  S_4  
     e(  4 -  4) =     -8.09500  eV     1   --> A_1  D_1  S_1  
     e(  5 -  5) =     -8.05310  eV     1   --> A_2  D_2  S_2  
     e(  6 -  6) =     -3.78232  eV     1   --> A_1  D_1  S_1  
     e(  7 -  7) =      0.04497  eV     1   --> A_1  D_1  S_1  
     e(  8 -  9) =      4.06598  eV     2   --> B_1  D_3  S_3  
     e(  8 -  9) =      4.06598  eV     2   --> B_2  D_4  S_4  
     e( 10 - 10) =      8.03322  eV     1   --> A_1  D_1  S_1  
     e( 11 - 11) =      8.51548  eV     1   --> A_1  D_1  S_1  
     e( 12 - 13) =     16.58889  eV     2   --> B_1  D_3  S_3  
     e( 12 - 13) =     16.58889  eV     2   --> B_2  D_4  S_4  

 **************************************************************************

 **************************************************************************

                    xk=(   0.00000,   0.00000,   0.85000  )

     Band symmetry, C_2v (mm2)  point group:

     e(  1 -  1) =     -8.26757  eV     1   --> A_1  D_1  S_1  
     e(  2 -  3) =     -8.10223  eV     2   --> B_1  D_3  S_3  
     e(  2 -  3) =     -8.10223  eV     2   --> B_2  D_4  S_4  
     e(  4 -  4) =     -8.09447  eV     1   --> A_1  D_1  S_1  
     e(  5 -  5) =     -8.05335  eV     1   --> A_2  D_2  S_2  
     e(  6 -  6) =     -3.85986  eV     1   --> A_1  D_1  S_1  
     e(  7 -  7) =      0.15549  eV     1   --> A_1  D_1  S_1  
     e(  8 -  9) =      4.09520  eV     2   --> B_1  D_3  S_3  
     e(  8 -  9) =      4.09520  eV     2   --> B_2  D_4  S_4  
     e( 10 - 10) =      8.03295  eV     1   --> A_1  D_1  S_1  
     e( 11 - 11) =      8.58982  eV     1   --> A_1  D_1  S_1  
     e( 12 - 13) =     16.41409  eV     2   --> B_1  D_3  S_3  
     e( 12 - 13) =     16.41409  eV     2   --> B_2  D_4  S_4  

 **************************************************************************

 **************************************************************************

                    xk=(   0.00000,   0.00000,   0.82500  )

     Band symmetry, C_2v (mm2)  point group:

     e(  1 -  1) =     -8.26579  eV     1   --> A_1  D_1  S_1  
     e(  2 -  3) =     -8.10330  eV     2   --> B_1  D_3  S_3  
     e(  2 -  3) =     -8.10330  eV     2   --> B_2  D_4  S_4  
     e(  4 -  4) =     -8.09386  eV     1   --> A_1  D_1  S_1  
     e(  5 -  5) =     -8.05365  eV     1   --> A_2  D_2  S_2  
     e(  6 -  6) =     -3.94563  eV     1   --> A_1  D_1  S_1  
     e(  7 -  7) =      0.28017  eV     1   --> A_1  D_1  S_1  
     e(  8 -  9) =      4.12965  eV     2   --> B_1  D_3  S_3  
     e(  8 -  9) =      4.12965  eV     2   --> B_2  D_4  S_4  
     e( 10 - 10) =      8.03817  eV     1   --> A_1  D_1  S_1  
     e( 11 - 11) =      8.67160  eV     1   --> A_1  D_1  S_1  
     e( 12 - 13) =     16.22580  eV     2   --> B_1  D_3  S_3  
     e( 12 - 13) =     16.22580  eV     2   --> B_2  D_4  S_4  

 **************************************************************************

 **************************************************************************

                    xk=(   0.00000,   0.00000,   0.80000  )

     Band symmetry, C_2v (mm2)  point group:

     e(  1 -  1) =     -8.26375  eV     1   --> A_1  D_1  S_1  
     e(  2 -  3) =     -8.10453  eV     2   --> B_1  D_3  S_3  
     e(  2 -  3) =     -8.10453  eV     2   --> B_2  D_4  S_4  
     e(  4 -  4) =     -8.09292  eV     1   --> A_1  D_1  S_1  
     e(  5 -  5) =     -8.05400  eV     1   --> A_2  D_2  S_2  
     e(  6 -  6) =     -4.03782  eV     1   --> A_1  D_1  S_1  
     e(  7 -  7) =      0.41716  eV     1   --> A_1  D_1  S_1  
     e(  8 -  9) =      4.16927  eV     2   --> B_1  D_3  S_3  
     e(  8 -  9) =      4.16927  eV     2   --> B_2  D_4  S_4  
     e( 10 - 10) =      8.04921  eV     1   --> A_1  D_1  S_1  
     e( 11 - 11) =      8.76017  eV     1   --> A_1  D_1  S_1  
     e( 12 - 13) =     16.02761  eV     2   --> B_1  D_3  S_3  
     e( 12 - 13) =     16.02761  eV     2   --> B_2  D_4  S_4  

 **************************************************************************

 **************************************************************************

                    xk=(   0.00000,   0.00000,   0.77500  )

     Band symmetry, C_2v (mm2)  point group:

     e(  1 -  1) =     -8.26146  eV     1   --> A_1  D_1  S_1  
     e(  2 -  3) =     -8.10591  eV     2   --> B_1  D_3  S_3  
     e(  2 -  3) =     -8.10591  eV     2   --> B_2  D_4  S_4  
     e(  4 -  4) =     -8.09226  eV     1   --> A_1  D_1  S_1  
     e(  5 -  5) =     -8.05437  eV     1   --> A_2  D_2  S_2  
     e(  6 -  6) =     -4.13483  eV     1   --> A_1  D_1  S_1  
     e(  7 -  7) =      0.56482  eV     1   --> A_1  D_1  S_1  
     e(  8 -  9) =      4.21401  eV     2   --> B_1  D_3  S_3  
     e(  8 -  9) =      4.21401  eV     2   --> B_2  D_4  S_4  
     e( 10 - 10) =      8.06620  eV     1   --> A_1  D_1  S_1  
     e( 11 - 11) =      8.85498  eV     1   --> A_1  D_1  S_1  
     e( 12 - 13) =     15.82228  eV     2   --> B_1  D_3  S_3  
     e( 12 - 13) =     15.82228  eV     2   --> B_2  D_4  S_4  

 **************************************************************************

 **************************************************************************

                    xk=(   0.00000,   0.00000,   0.75000  )

     Band symmetry, C_2v (mm2)  point group:

     e(  1 -  1) =     -8.25894  eV     1   --> A_1  D_1  S_1  
     e(  2 -  3) =     -8.10752  eV     2   --> B_1  D_3  S_3  
     e(  2 -  3) =     -8.10752  eV     2   --> B_2  D_4  S_4  
     e(  4 -  4) =     -8.09141  eV     1   --> A_1  D_1  S_1  
     e(  5 -  5) =     -8.05486  eV     1   --> A_2  D_2  S_2  
     e(  6 -  6) =     -4.23524  eV     1   --> A_1  D_1  S_1  
     e(  7 -  7) =      0.72170  eV     1   --> A_1  D_1  S_1  
     e(  8 -  9) =      4.26381  eV     2   --> B_1  D_3  S_3  
     e(  8 -  9) =      4.26381  eV     2   --> B_2  D_4  S_4  
     e( 10 - 10) =      8.08923  eV     1   --> A_1  D_1  S_1  
     e( 11 - 11) =      8.95543  eV     1   --> A_1  D_1  S_1  
     e( 12 - 13) =     15.61184  eV     2   --> B_1  D_3  S_3  
     e( 12 - 13) =     15.61184  eV     2   --> B_2  D_4  S_4  

 **************************************************************************

 **************************************************************************

                    xk=(   0.00000,   0.00000,   0.72500  )

     Band symmetry, C_2v (mm2)  point group:

     e(  1 -  1) =     -8.25616  eV     1   --> A_1  D_1  S_1  
     e(  2 -  3) =     -8.10912  eV     2   --> B_1  D_3  S_3  
     e(  2 -  3) =     -8.10912  eV     2   --> B_2  D_4  S_4  
     e(  4 -  4) =     -8.09051  eV     1   --> A_1  D_1  S_1  
     e(  5 -  5) =     -8.05531  eV     1   --> A_2  D_2  S_2  
     e(  6 -  6) =     -4.33786  eV     1   --> A_1  D_1  S_1  
     e(  7 -  7) =      0.88656  eV     1   --> A_1  D_1  S_1  
     e(  8 -  9) =      4.31861  eV     2   --> B_1  D_3  S_3  
     e(  8 -  9) =      4.31861  eV     2   --> B_2  D_4  S_4  
     e( 10 - 10) =      8.11832  eV     1   --> A_1  D_1  S_1  
     e( 11 - 11) =      9.06086  eV     1   --> A_1  D_1  S_1  
     e( 12 - 13) =     15.39785  eV     2   --> B_1  D_3  S_3  
     e( 12 - 13) =     15.39785  eV     2   --> B_2  D_4  S_4  

 **************************************************************************

 **************************************************************************

                    xk=(   0.00000,   0.00000,   0.70000  )

     Band symmetry, C_2v (mm2)  point group:

     e(  1 -  1) =     -8.25303  eV     1   --> A_1  D_1  S_1  
     e(  2 -  3) =     -8.11069  eV     2   --> B_1  D_3  S_3  
     e(  2 -  3) =     -8.11069  eV     2   --> B_2  D_4  S_4  
     e(  4 -  4) =     -8.08954  eV     1   --> A_1  D_1  S_1  
     e(  5 -  5) =     -8.05577  eV     1   --> A_2  D_2  S_2  
     e(  6 -  6) =     -4.44168  eV     1   --> A_1  D_1  S_1  
     e(  7 -  7) =      1.05837  eV     1   --> A_1  D_1  S_1  
     e(  8 -  9) =      4.37831  eV     2   --> B_1  D_3  S_3  
     e(  8 -  9) =      4.37831  eV     2   --> B_2  D_4  S_4  
     e( 10 - 10) =      8.15346  eV     1   --> A_1  D_1  S_1  
     e( 11 - 11) =      9.17046  eV     1   --> A_1  D_1  S_1  
     e( 12 - 13) =     15.18146  eV     2   --> B_1  D_3  S_3  
     e( 12 - 13) =     15.18146  eV     2   --> B_2  D_4  S_4  

 **************************************************************************

 **************************************************************************

                    xk=(   0.00000,   0.00000,   0.67500  )

     Band symmetry, C_2v (mm2)  point group:

     e(  1 -  1) =     -8.24979  eV     1   --> A_1  D_1  S_1  
     e(  2 -  3) =     -8.11248  eV     2   --> B_1  D_3  S_3  
     e(  2 -  3) =     -8.11248  eV     2   --> B_2  D_4  S_4  
     e(  4 -  4) =     -8.08853  eV     1   --> A_1  D_1  S_1  
     e(  5 -  5) =     -8.05627  eV     1   --> A_2  D_2  S_2  
     e(  6 -  6) =     -4.54583  eV     1   --> A_1  D_1  S_1  
     e(  7 -  7) =      1.23621  eV     1   --> A_1  D_1  S_1  
     e(  8 -  9) =      4.44282  eV     2   --> B_1  D_3  S_3  
     e(  8 -  9) =      4.44282  eV     2   --> B_2  D_4  S_4  
     e( 10 - 10) =      8.19458  eV     1   --> A_1  D_1  S_1  
     e( 11 - 11) =      9.28323  eV     1   --> A_1  D_1  S_1  
     e( 12 - 13) =     14.96354  eV     2   --> B_1  D_3  S_3  
     e( 12 - 13) =     14.96354  eV     2   --> B_2  D_4  S_4  

 **************************************************************************

 **************************************************************************

                    xk=(   0.00000,   0.00000,   0.65000  )

     Band symmetry, C_2v (mm2)  point group:

     e(  1 -  1) =     -8.24634  eV     1   --> A_1  D_1  S_1  
     e(  2 -  3) =     -8.11435  eV     2   --> B_1  D_3  S_3  
     e(  2 -  3) =     -8.11435  eV     2   --> B_2  D_4  S_4  
     e(  4 -  4) =     -8.08752  eV     1   --> A_1  D_1  S_1  
     e(  5 -  5) =     -8.05680  eV     1   --> A_2  D_2  S_2  
     e(  6 -  6) =     -4.64960  eV     1   --> A_1  D_1  S_1  
     e(  7 -  7) =      1.41933  eV     1   --> A_1  D_1  S_1  
     e(  8 -  9) =      4.51204  eV     2   --> B_1  D_3  S_3  
     e(  8 -  9) =      4.51204  eV     2   --> B_2  D_4  S_4  
     e( 10 - 10) =      8.24162  eV     1   --> A_1  D_1  S_1  
     e( 11 - 11) =      9.39791  eV     1   --> A_1  D_1  S_1  
     e( 12 - 13) =     14.74480  eV     2   --> B_1  D_3  S_3  
     e( 12 - 13) =     14.74480  eV     2   --> B_2  D_4  S_4  

 **************************************************************************

 **************************************************************************

                    xk=(   0.00000,   0.00000,   0.62500  )

     Band symmetry, C_2v (mm2)  point group:

     e(  1 -  1) =     -8.24269  eV     1   --> A_1  D_1  S_1  
     e(  2 -  3) =     -8.11630  eV     2   --> B_1  D_3  S_3  
     e(  2 -  3) =     -8.11630  eV     2   --> B_2  D_4  S_4  
     e(  4 -  4) =     -8.08643  eV     1   --> A_1  D_1  S_1  
     e(  5 -  5) =     -8.05734  eV     1   --> A_2  D_2  S_2  
     e(  6 -  6) =     -4.75237  eV     1   --> A_1  D_1  S_1  
     e(  7 -  7) =      1.60709  eV     1   --> A_1  D_1  S_1  
     e(  8 -  9) =      4.58586  eV     2   --> B_1  D_3  S_3  
     e(  8 -  9) =      4.58586  eV     2   --> B_2  D_4  S_4  
     e( 10 - 10) =      8.29447  eV     1   --> A_1  D_1  S_1  
     e( 11 - 11) =      9.51294  eV     1   --> A_1  D_1  S_1  
     e( 12 - 13) =     14.52578  eV     2   --> B_1  D_3  S_3  
     e( 12 - 13) =     14.52578  eV     2   --> B_2  D_4  S_4  

 **************************************************************************

 **************************************************************************

                    xk=(   0.00000,   0.00000,   0.60000  )

     Band symmetry, C_2v (mm2)  point group:

     e(  1 -  1) =     -8.23886  eV     1   --> A_1  D_1  S_1  
     e(  2 -  3) =     -8.11842  eV     2   --> B_1  D_3  S_3  
     e(  2 -  3) =     -8.11842  eV     2   --> B_2  D_4  S_4  
     e(  4 -  4) =     -8.08531  eV     1   --> A_1  D_1  S_1  
     e(  5 -  5) =     -8.05805  eV     1   --> A_2  D_2  S_2  
     e(  6 -  6) =     -4.85363  eV     1   --> A_1  D_1  S_1  
     e(  7 -  7) =      1.79893  eV     1   --> A_1  D_1  S_1  
     e(  8 -  9) =      4.66413  eV     2   --> B_1  D_3  S_3  
     e(  8 -  9) =      4.66413  eV     2   --> B_2  D_4  S_4  
     e( 10 - 10) =      8.35302  eV     1   --> A_1  D_1  S_1  
     e( 11 - 11) =      9.62631  eV     1   --> A_1  D_1  S_1  
     e( 12 - 13) =     14.30692  eV     2   --> B_1  D_3  S_3  
     e( 12 - 13) =     14.30692  eV     2   --> B_2  D_4  S_4  

 **************************************************************************

 **************************************************************************

                    xk=(   0.00000,   0.00000,   0.57500  )

     Band symmetry, C_2v (mm2)  point group:

     e(  1 -  1) =     -8.23485  eV     1   --> A_1  D_1  S_1  
     e(  2 -  3) =     -8.12059  eV     2   --> B_1  D_3  S_3  
     e(  2 -  3) =     -8.12059  eV     2   --> B_2  D_4  S_4  
     e(  4 -  4) =     -8.08426  eV     1   --> A_1  D_1  S_1  
     e(  5 -  5) =     -8.05866  eV     1   --> A_2  D_2  S_2  
     e(  6 -  6) =     -4.95292  eV     1   --> A_1  D_1  S_1  
     e(  7 -  7) =      1.99440  eV     1   --> A_1  D_1  S_1  
     e(  8 -  9) =      4.74672  eV     2   --> B_1  D_3  S_3  
     e(  8 -  9) =      4.74672  eV     2   --> B_2  D_4  S_4  
     e( 10 - 10) =      8.41710  eV     1   --> A_1  D_1  S_1  
     e( 11 - 11) =      9.73552  eV     1   --> A_1  D_1  S_1  
     e( 12 - 13) =     14.08863  eV     2   --> B_1  D_3  S_3  
     e( 12 - 13) =     14.08863  eV     2   --> B_2  D_4  S_4  

 **************************************************************************

 **************************************************************************

                    xk=(   0.00000,   0.00000,   0.55000  )

     Band symmetry, C_2v (mm2)  point group:

     e(  1 -  1) =     -8.23068  eV     1   --> A_1  D_1  S_1  
     e(  2 -  3) =     -8.12267  eV     2   --> B_1  D_3  S_3  
     e(  2 -  3) =     -8.12267  eV     2   --> B_2  D_4  S_4  
     e(  4 -  4) =     -8.08312  eV     1   --> A_1  D_1  S_1  
     e(  5 -  5) =     -8.05925  eV     1   --> A_2  D_2  S_2  
     e(  6 -  6) =     -5.04987  eV     1   --> A_1  D_1  S_1  
     e(  7 -  7) =      2.19309  eV     1   --> A_1  D_1  S_1  
     e(  8 -  9) =      4.83346  eV     2   --> B_1  D_3  S_3  
     e(  8 -  9) =      4.83346  eV     2   --> B_2  D_4  S_4  
     e( 10 - 10) =      8.48656  eV     1   --> A_1  D_1  S_1  
     e( 11 - 11) =      9.83748  eV     1   --> A_1  D_1  S_1  
     e( 12 - 13) =     13.87124  eV     2   --> B_1  D_3  S_3  
     e( 12 - 13) =     13.87124  eV     2   --> B_2  D_4  S_4  

 **************************************************************************

 **************************************************************************

                    xk=(   0.00000,   0.00000,   0.52500  )

     Band symmetry, C_2v (mm2)  point group:

     e(  1 -  1) =     -8.22636  eV     1   --> A_1  D_1  S_1  
     e(  2 -  3) =     -8.12476  eV     2   --> B_1  D_3  S_3  
     e(  2 -  3) =     -8.12476  eV     2   --> B_2  D_4  S_4  
     e(  4 -  4) =     -8.08197  eV     1   --> A_1  D_1  S_1  
     e(  5 -  5) =     -8.05985  eV     1   --> A_2  D_2  S_2  
     e(  6 -  6) =     -5.14415  eV     1   --> A_1  D_1  S_1  
     e(  7 -  7) =      2.39467  eV     1   --> A_1  D_1  S_1  
     e(  8 -  9) =      4.92416  eV     2   --> B_1  D_3  S_3  
     e(  8 -  9) =      4.92416  eV     2   --> B_2  D_4  S_4  
     e( 10 - 10) =      8.56115  eV     1   --> A_1  D_1  S_1  
     e( 11 - 11) =      9.92846  eV     1   --> A_1  D_1  S_1  
     e( 12 - 13) =     13.65508  eV     2   --> B_1  D_3  S_3  
     e( 12 - 13) =     13.65508  eV     2   --> B_2  D_4  S_4  

 **************************************************************************

 **************************************************************************

                    xk=(   0.00000,   0.00000,   0.50000  )

     Band symmetry, C_2v (mm2)  point group:

     e(  1 -  1) =     -8.22192  eV     1   --> A_1  D_1  S_1  
     e(  2 -  3) =     -8.12686  eV     2   --> B_1  D_3  S_3  
     e(  2 -  3) =     -8.12686  eV     2   --> B_2  D_4  S_4  
     e(  4 -  4) =     -8.08083  eV     1   --> A_1  D_1  S_1  
     e(  5 -  5) =     -8.06045  eV     1   --> A_2  D_2  S_2  
     e(  6 -  6) =     -5.23548  eV     1   --> A_1  D_1  S_1  
     e(  7 -  7) =      2.59886  eV     1   --> A_1  D_1  S_1  
     e(  8 -  9) =      5.01860  eV     2   --> B_1  D_3  S_3  
     e(  8 -  9) =      5.01860  eV     2   --> B_2  D_4  S_4  
     e( 10 - 10) =      8.64063  eV     1   --> A_1  D_1  S_1  
     e( 11 - 11) =     10.00413  eV     1   --> A_1  D_1  S_1  
     e( 12 - 13) =     13.44046  eV     2   --> B_1  D_3  S_3  
     e( 12 - 13) =     13.44046  eV     2   --> B_2  D_4  S_4  

 **************************************************************************

 **************************************************************************

                    xk=(   0.00000,   0.00000,   0.47500  )

     Band symmetry, C_2v (mm2)  point group:

     e(  1 -  1) =     -8.21738  eV     1   --> A_1  D_1  S_1  
     e(  2 -  3) =     -8.12896  eV     2   --> B_1  D_3  S_3  
     e(  2 -  3) =     -8.12896  eV     2   --> B_2  D_4  S_4  
     e(  4 -  4) =     -8.07970  eV     1   --> A_1  D_1  S_1  
     e(  5 -  5) =     -8.06106  eV     1   --> A_2  D_2  S_2  
     e(  6 -  6) =     -5.32361  eV     1   --> A_1  D_1  S_1  
     e(  7 -  7) =      2.80539  eV     1   --> A_1  D_1  S_1  
     e(  8 -  9) =      5.11656  eV     2   --> B_1  D_3  S_3  
     e(  8 -  9) =      5.11656  eV     2   --> B_2  D_4  S_4  
     e( 10 - 10) =      8.72462  eV     1   --> A_1  D_1  S_1  
     e( 11 - 11) =     10.05987  eV     1   --> A_1  D_1  S_1  
     e( 12 - 13) =     13.22769  eV     2   --> B_1  D_3  S_3  
     e( 12 - 13) =     13.22769  eV     2   --> B_2  D_4  S_4  

 **************************************************************************

 **************************************************************************

                    xk=(   0.00000,   0.00000,   0.45000  )

     Band symmetry, C_2v (mm2)  point group:

     e(  1 -  1) =     -8.21285  eV     1   --> A_1  D_1  S_1  
     e(  2 -  3) =     -8.13125  eV     2   --> B_1  D_3  S_3  
     e(  2 -  3) =     -8.13125  eV     2   --> B_2  D_4  S_4  
     e(  4 -  4) =     -8.07880  eV     1   --> A_1  D_1  S_1  
     e(  5 -  5) =     -8.06169  eV     1   --> A_2  D_2  S_2  
     e(  6 -  6) =     -5.40834  eV     1   --> A_1  D_1  S_1  
     e(  7 -  7) =      3.01408  eV     1   --> A_1  D_1  S_1  
     e(  8 -  9) =      5.21773  eV     2   --> B_1  D_3  S_3  
     e(  8 -  9) =      5.21773  eV     2   --> B_2  D_4  S_4  
     e( 10 - 10) =      8.81267  eV     1   --> A_1  D_1  S_1  
     e( 11 - 11) =     10.09116  eV     1   --> A_1  D_1  S_1  
     e( 12 - 13) =     13.01712  eV     2   --> B_1  D_3  S_3  
     e( 12 - 13) =     13.01712  eV     2   --> B_2  D_4  S_4  

 **************************************************************************

 **************************************************************************

                    xk=(   0.00000,   0.00000,   0.42500  )

     Band symmetry, C_2v (mm2)  point group:

     e(  1 -  1) =     -8.20817  eV     1   --> A_1  D_1  S_1  
     e(  2 -  3) =     -8.13328  eV     2   --> B_1  D_3  S_3  
     e(  2 -  3) =     -8.13328  eV     2   --> B_2  D_4  S_4  
     e(  4 -  4) =     -8.07754  eV     1   --> A_1  D_1  S_1  
     e(  5 -  5) =     -8.06229  eV     1   --> A_2  D_2  S_2  
     e(  6 -  6) =     -5.48945  eV     1   --> A_1  D_1  S_1  
     e(  7 -  7) =      3.22473  eV     1   --> A_1  D_1  S_1  
     e(  8 -  9) =      5.32183  eV     2   --> B_1  D_3  S_3  
     e(  8 -  9) =      5.32183  eV     2   --> B_2  D_4  S_4  
     e( 10 - 10) =      8.90413  eV     1   --> A_1  D_1  S_1  
     e( 11 - 11) =     10.09450  eV     1   --> A_1  D_1  S_1  
     e( 12 - 13) =     12.80912  eV     2   --> B_1  D_3  S_3  
     e( 12 - 13) =     12.80912  eV     2   --> B_2  D_4  S_4  

 **************************************************************************

 **************************************************************************

                    xk=(   0.00000,   0.00000,   0.40000  )

     Band symmetry, C_2v (mm2)  point group:

     e(  1 -  1) =     -8.20346  eV     1   --> A_1  D_1  S_1  
     e(  2 -  3) =     -8.13528  eV     2   --> B_1  D_3  S_3  
     e(  2 -  3) =     -8.13528  eV     2   --> B_2  D_4  S_4  
     e(  4 -  4) =     -8.07650  eV     1   --> A_1  D_1  S_1  
     e(  5 -  5) =     -8.06287  eV     1   --> A_2  D_2  S_2  
     e(  6 -  6) =     -5.56678  eV     1   --> A_1  D_1  S_1  
     e(  7 -  7) =      3.43720  eV     1   --> A_1  D_1  S_1  
     e(  8 -  9) =      5.42847  eV     2   --> B_1  D_3  S_3  
     e(  8 -  9) =      5.42847  eV     2   --> B_2  D_4  S_4  
     e( 10 - 10) =      8.99798  eV     1   --> A_1  D_1  S_1  
     e( 11 - 11) =     10.06810  eV     1   --> A_1  D_1  S_1  
     e( 12 - 13) =     12.60412  eV     2   --> B_1  D_3  S_3  
     e( 12 - 13) =     12.60412  eV     2   --> B_2  D_4  S_4  

 **************************************************************************

 **************************************************************************

                    xk=(   0.00000,   0.00000,   0.37500  )

     Band symmetry, C_2v (mm2)  point group:

     e(  1 -  1) =     -8.19875  eV     1   --> A_1  D_1  S_1  
     e(  2 -  3) =     -8.13721  eV     2   --> B_1  D_3  S_3  
     e(  2 -  3) =     -8.13721  eV     2   --> B_2  D_4  S_4  
     e(  4 -  4) =     -8.07550  eV     1   --> A_1  D_1  S_1  
     e(  5 -  5) =     -8.06343  eV     1   --> A_2  D_2  S_2  
     e(  6 -  6) =     -5.64018  eV     1   --> A_1  D_1  S_1  
     e(  7 -  7) =      3.65134  eV     1   --> A_1  D_1  S_1  
     e(  8 -  9) =      5.53723  eV     2   --> B_1  D_3  S_3  
     e(  8 -  9) =      5.53723  eV     2   --> B_2  D_4  S_4  
     e( 10 - 10) =      9.09250  eV     1   --> A_1  D_1  S_1  
     e( 11 - 11) =     10.01285  eV     1   --> A_1  D_1  S_1  
     e( 12 - 13) =     12.40258  eV     2   --> B_1  D_3  S_3  
     e( 12 - 13) =     12.40258  eV     2   --> B_2  D_4  S_4  

 **************************************************************************

 **************************************************************************

                    xk=(   0.00000,   0.00000,   0.35000  )

     Band symmetry, C_2v (mm2)  point group:

     e(  1 -  1) =     -8.19407  eV     1   --> A_1  D_1  S_1  
     e(  2 -  3) =     -8.13918  eV     2   --> B_1  D_3  S_3  
     e(  2 -  3) =     -8.13918  eV     2   --> B_2  D_4  S_4  
     e(  4 -  4) =     -8.07472  eV     1   --> A_1  D_1  S_1  
     e(  5 -  5) =     -8.06399  eV     1   --> A_2  D_2  S_2  
     e(  6 -  6) =     -5.70950  eV     1   --> A_1  D_1  S_1  
     e(  7 -  7) =      3.86705  eV     1   --> A_1  D_1  S_1  
     e(  8 -  9) =      5.64763  eV     2   --> B_1  D_3  S_3  
     e(  8 -  9) =      5.64763  eV     2   --> B_2  D_4  S_4  
     e( 10 - 10) =      9.18427  eV     1   --> A_1  D_1  S_1  
     e( 11 - 11) =      9.93323  eV     1   --> A_1  D_1  S_1  
     e( 12 - 13) =     12.20503  eV     2   --> B_1  D_3  S_3  
     e( 12 - 13) =     12.20503  eV     2   --> B_2  D_4  S_4  

 **************************************************************************

 **************************************************************************

                    xk=(   0.00000,   0.00000,   0.32500  )

     Band symmetry, C_2v (mm2)  point group:

     e(  1 -  1) =     -8.18945  eV     1   --> A_1  D_1  S_1  
     e(  2 -  3) =     -8.14097  eV     2   --> B_1  D_3  S_3  
     e(  2 -  3) =     -8.14097  eV     2   --> B_2  D_4  S_4  
     e(  4 -  4) =     -8.07382  eV     1   --> A_1  D_1  S_1  
     e(  5 -  5) =     -8.06452  eV     1   --> A_2  D_2  S_2  
     e(  6 -  6) =     -5.77462  eV     1   --> A_1  D_1  S_1  
     e(  7 -  7) =      4.08423  eV     1   --> A_1  D_1  S_1  
     e(  8 -  9) =      5.75909  eV     2   --> B_1  D_3  S_3  
     e(  8 -  9) =      5.75909  eV     2   --> B_2  D_4  S_4  
     e( 10 - 10) =      9.26511  eV     1   --> A_1  D_1  S_1  
     e( 11 - 11) =      9.83994  eV     1   --> A_1  D_1  S_1  
     e( 12 - 13) =     12.01213  eV     2   --> B_1  D_3  S_3  
     e( 12 - 13) =     12.01213  eV     2   --> B_2  D_4  S_4  

 **************************************************************************

 **************************************************************************

                    xk=(   0.00000,   0.00000,   0.30000  )

     Band symmetry, C_2v (mm2)  point group:

     e(  1 -  1) =     -8.18473  eV     1   --> A_1  D_1  S_1  
     e(  2 -  3) =     -8.14250  eV     2   --> B_1  D_3  S_3  
     e(  2 -  3) =     -8.14250  eV     2   --> B_2  D_4  S_4  
     e(  4 -  4) =     -8.07271  eV     1   --> A_1  D_1  S_1  
     e(  5 -  5) =     -8.06489  eV     1   --> A_2  D_2  S_2  
     e(  6 -  6) =     -5.83539  eV     1   --> A_1  D_1  S_1  
     e(  7 -  7) =      4.30277  eV     1   --> A_1  D_1  S_1  
     e(  8 -  9) =      5.87093  eV     2   --> B_1  D_3  S_3  
     e(  8 -  9) =      5.87093  eV     2   --> B_2  D_4  S_4  
     e( 10 - 10) =      9.31278  eV     1   --> A_1  D_1  S_1  
     e( 11 - 11) =      9.75839  eV     1   --> A_1  D_1  S_1  
     e( 12 - 13) =     11.82461  eV     2   --> B_1  D_3  S_3  
     e( 12 - 13) =     11.82461  eV     2   --> B_2  D_4  S_4  

 **************************************************************************

 **************************************************************************

                    xk=(   0.00000,   0.00000,   0.27500  )

     Band symmetry, C_2v (mm2)  point group:

     e(  1 -  1) =     -8.18035  eV     1   --> A_1  D_1  S_1  
     e(  2 -  3) =     -8.14412  eV     2   --> B_1  D_3  S_3  
     e(  2 -  3) =     -8.14412  eV     2   --> B_2  D_4  S_4  
     e(  4 -  4) =     -8.07209  eV     1   --> A_1  D_1  S_1  
     e(  5 -  5) =     -8.06536  eV     1   --> A_2  D_2  S_2  
     e(  6 -  6) =     -5.89175  eV     1   --> A_1  D_1  S_1  
     e(  7 -  7) =      4.52256  eV     1   --> A_1  D_1  S_1  
     e(  8 -  9) =      5.98235  eV     2   --> B_1  D_3  S_3  
     e(  8 -  9) =      5.98235  eV     2   --> B_2  D_4  S_4  
     e( 10 - 10) =      9.28391  eV     1   --> A_1  D_1  S_1  
     e( 11 - 11) =      9.73510  eV     1   --> A_1  D_1  S_1  
     e( 12 - 13) =     11.64328  eV     2   --> B_1  D_3  S_3  
     e( 12 - 13) =     11.64328  eV     2   --> B_2  D_4  S_4  

 **************************************************************************

 **************************************************************************

                    xk=(   0.00000,   0.00000,   0.25000  )

     Band symmetry, C_2v (mm2)  point group:

     e(  1 -  1) =     -8.17615  eV     1   --> A_1  D_1  S_1  
     e(  2 -  3) =     -8.14561  eV     2   --> B_1  D_3  S_3  
     e(  2 -  3) =     -8.14561  eV     2   --> B_2  D_4  S_4  
     e(  4 -  4) =     -8.07138  eV     1   --> A_1  D_1  S_1  
     e(  5 -  5) =     -8.06581  eV     1   --> A_2  D_2  S_2  
     e(  6 -  6) =     -5.94358  eV     1   --> A_1  D_1  S_1  
     e(  7 -  7) =      4.74351  eV     1   --> A_1  D_1  S_1  
     e(  8 -  9) =      6.09242  eV     2   --> B_1  D_3  S_3  
     e(  8 -  9) =      6.09242  eV     2   --> B_2  D_4  S_4  
     e( 10 - 10) =      9.16915  eV     1   --> A_1  D_1  S_1  
     e( 11 - 11) =      9.78228  eV     1   --> A_1  D_1  S_1  
     e( 12 - 13) =     11.46914  eV     2   --> B_1  D_3  S_3  
     e( 12 - 13) =     11.46914  eV     2   --> B_2  D_4  S_4  

 **************************************************************************

 **************************************************************************

                    xk=(   0.00000,   0.00000,   0.22500  )

     Band symmetry, C_2v (mm2)  point group:

     e(  1 -  1) =     -8.17200  eV     1   --> A_1  D_1  S_1  
     e(  2 -  3) =     -8.14695  eV     2   --> B_1  D_3  S_3  
     e(  2 -  3) =     -8.14695  eV     2   --> B_2  D_4  S_4  
     e(  4 -  4) =     -8.07069  eV     1   --> A_1  D_1  S_1  
     e(  5 -  5) =     -8.06615  eV     1   --> A_2  D_2  S_2  
     e(  6 -  6) =     -5.99076  eV     1   --> A_1  D_1  S_1  
     e(  7 -  7) =      4.96548  eV     1   --> A_1  D_1  S_1  
     e(  8 -  9) =      6.20003  eV     2   --> B_1  D_3  S_3  
     e(  8 -  9) =      6.20003  eV     2   --> B_2  D_4  S_4  
     e( 10 - 10) =      9.00597  eV     1   --> A_1  D_1  S_1  
     e( 11 - 11) =      9.86458  eV     1   --> A_1  D_1  S_1  
     e( 12 - 13) =     11.30338  eV     2   --> B_1  D_3  S_3  
     e( 12 - 13) =     11.30338  eV     2   --> B_2  D_4  S_4  

 **************************************************************************

 **************************************************************************

                    xk=(   0.00000,   0.00000,   0.20000  )

     Band symmetry, C_2v (mm2)  point group:

     e(  1 -  1) =     -8.16820  eV     1   --> A_1  D_1  S_1  
     e(  2 -  3) =     -8.14808  eV     2   --> B_1  D_3  S_3  
     e(  2 -  3) =     -8.14808  eV     2   --> B_2  D_4  S_4  
     e(  4 -  4) =     -8.07012  eV     1   --> A_1  D_1  S_1  
     e(  5 -  5) =     -8.06647  eV     1   --> A_2  D_2  S_2  
     e(  6 -  6) =     -6.03324  eV     1   --> A_1  D_1  S_1  
     e(  7 -  7) =      5.18832  eV     1   --> A_1  D_1  S_1  
     e(  8 -  9) =      6.30389  eV     2   --> B_1  D_3  S_3  
     e(  8 -  9) =      6.30389  eV     2   --> B_2  D_4  S_4  
     e( 10 - 10) =      8.81890  eV     1   --> A_1  D_1  S_1  
     e( 11 - 11) =      9.95886  eV     1   --> A_1  D_1  S_1  
     e( 12 - 13) =     11.14732  eV     2   --> B_1  D_3  S_3  
     e( 12 - 13) =     11.14732  eV     2   --> B_2  D_4  S_4  

 **************************************************************************

 **************************************************************************

                    xk=(   0.00000,   0.00000,   0.17500  )

     Band symmetry, C_2v (mm2)  point group:

     e(  1 -  1) =     -8.16479  eV     1   --> A_1  D_1  S_1  
     e(  2 -  3) =     -8.14920  eV     2   --> B_1  D_3  S_3  
     e(  2 -  3) =     -8.14920  eV     2   --> B_2  D_4  S_4  
     e(  4 -  4) =     -8.06963  eV     1   --> A_1  D_1  S_1  
     e(  5 -  5) =     -8.06680  eV     1   --> A_2  D_2  S_2  
     e(  6 -  6) =     -6.07092  eV     1   --> A_1  D_1  S_1  
     e(  7 -  7) =      5.41180  eV     1   --> A_1  D_1  S_1  
     e(  8 -  9) =      6.40250  eV     2   --> B_1  D_3  S_3  
     e(  8 -  9) =      6.40250  eV     2   --> B_2  D_4  S_4  
     e( 10 - 10) =      8.61834  eV     1   --> A_1  D_1  S_1  
     e( 11 - 11) =     10.05539  eV     1   --> A_1  D_1  S_1  
     e( 12 - 13) =     11.00252  eV     2   --> B_1  D_3  S_3  
     e( 12 - 13) =     11.00252  eV     2   --> B_2  D_4  S_4  

 **************************************************************************

 **************************************************************************

                    xk=(   0.00000,   0.00000,   0.15000  )

     Band symmetry, C_2v (mm2)  point group:

     e(  1 -  1) =     -8.16173  eV     1   --> A_1  D_1  S_1  
     e(  2 -  3) =     -8.15018  eV     2   --> B_1  D_3  S_3  
     e(  2 -  3) =     -8.15018  eV     2   --> B_2  D_4  S_4  
     e(  4 -  4) =     -8.06921  eV     1   --> A_1  D_1  S_1  
     e(  5 -  5) =     -8.06710  eV     1   --> A_2  D_2  S_2  
     e(  6 -  6) =     -6.10374  eV     1   --> A_1  D_1  S_1  
     e(  7 -  7) =      5.63559  eV     1   --> A_1  D_1  S_1  
     e(  8 -  9) =      6.49413  eV     2   --> B_1  D_3  S_3  
     e(  8 -  9) =      6.49413  eV     2   --> B_2  D_4  S_4  
     e( 10 - 10) =      8.40945  eV     1   --> A_1  D_1  S_1  
     e( 11 - 11) =     10.14905  eV     1   --> A_1  D_1  S_1  
     e( 12 - 13) =     10.87074  eV     2   --> B_1  D_3  S_3  
     e( 12 - 13) =     10.87074  eV     2   --> B_2  D_4  S_4  

 **************************************************************************

 **************************************************************************

                    xk=(   0.00000,   0.00000,   0.12500  )

     Band symmetry, C_2v (mm2)  point group:

     e(  1 -  1) =     -8.15896  eV     1   --> A_1  D_1  S_1  
     e(  2 -  3) =     -8.15079  eV     2   --> B_1  D_3  S_3  
     e(  2 -  3) =     -8.15079  eV     2   --> B_2  D_4  S_4  
     e(  4 -  4) =     -8.06881  eV     1   --> A_1  D_1  S_1  
     e(  5 -  5) =     -8.06723  eV     1   --> A_2  D_2  S_2  
     e(  6 -  6) =     -6.13161  eV     1   --> A_1  D_1  S_1  
     e(  7 -  7) =      5.85917  eV     1   --> A_1  D_1  S_1  
     e(  8 -  9) =      6.57686  eV     2   --> B_1  D_3  S_3  
     e(  8 -  9) =      6.57686  eV     2   --> B_2  D_4  S_4  
     e( 10 - 10) =      8.19552  eV     1   --> A_1  D_1  S_1  
     e( 11 - 11) =     10.23612  eV     1   --> A_1  D_1  S_1  
     e( 12 - 13) =     10.75398  eV     2   --> B_1  D_3  S_3  
     e( 12 - 13) =     10.75398  eV     2   --> B_2  D_4  S_4  

 **************************************************************************

 **************************************************************************

                    xk=(   0.00000,   0.00000,   0.10000  )

     Band symmetry, C_2v (mm2)  point group:

     e(  1 -  1) =     -8.15672  eV     1   --> A_1  D_1  S_1  
     e(  2 -  3) =     -8.15145  eV     2   --> B_1  D_3  S_3  
     e(  2 -  3) =     -8.15145  eV     2   --> B_2  D_4  S_4  
     e(  4 -  4) =     -8.06841  eV     1   --> A_1  D_1  S_1  
     e(  5 -  5) =     -8.06744  eV     1   --> A_2  D_2  S_2  
     e(  6 -  6) =     -6.15451  eV     1   --> A_1  D_1  S_1  
     e(  7 -  7) =      6.08154  eV     1   --> A_1  D_1  S_1  
     e(  8 -  9) =      6.64863  eV     2   --> B_1  D_3  S_3  
     e(  8 -  9) =      6.64863  eV     2   --> B_2  D_4  S_4  
     e( 10 - 10) =      7.97926  eV     1   --> A_1  D_1  S_1  
     e( 11 - 11) =     10.31332  eV     1   --> A_1  D_1  S_1  
     e( 12 - 13) =     10.65429  eV     2   --> B_1  D_3  S_3  
     e( 12 - 13) =     10.65429  eV     2   --> B_2  D_4  S_4  

 **************************************************************************

 **************************************************************************

                    xk=(   0.00000,   0.00000,   0.07500  )

     Band symmetry, C_2v (mm2)  point group:

     e(  1 -  1) =     -8.15492  eV     1   --> A_1  D_1  S_1  
     e(  2 -  3) =     -8.15187  eV     2   --> B_1  D_3  S_3  
     e(  2 -  3) =     -8.15187  eV     2   --> B_2  D_4  S_4  
     e(  4 -  4) =     -8.06808  eV     1   --> A_1  D_1  S_1  
     e(  5 -  5) =     -8.06760  eV     1   --> A_2  D_2  S_2  
     e(  6 -  6) =     -6.17236  eV     1   --> A_1  D_1  S_1  
     e(  7 -  7) =      6.30068  eV     1   --> A_1  D_1  S_1  
     e(  8 -  9) =      6.70733  eV     2   --> B_1  D_3  S_3  
     e(  8 -  9) =      6.70733  eV     2   --> B_2  D_4  S_4  
     e( 10 - 10) =      7.76386  eV     1   --> A_1  D_1  S_1  
     e( 11 - 11) =     10.37752  eV     1   --> A_1  D_1  S_1  
     e( 12 - 13) =     10.57386  eV     2   --> B_1  D_3  S_3  
     e( 12 - 13) =     10.57386  eV     2   --> B_2  D_4  S_4  

 **************************************************************************

 **************************************************************************

                    xk=(   0.00000,   0.00000,   0.05000  )

     Band symmetry, C_2v (mm2)  point group:

     e(  1 -  1) =     -8.15362  eV     1   --> A_1  D_1  S_1  
     e(  2 -  3) =     -8.15226  eV     2   --> B_1  D_3  S_3  
     e(  2 -  3) =     -8.15226  eV     2   --> B_2  D_4  S_4  
     e(  4 -  4) =     -8.06793  eV     1   --> A_1  D_1  S_1  
     e(  5 -  5) =     -8.06771  eV     1   --> A_2  D_2  S_2  
     e(  6 -  6) =     -6.18514  eV     1   --> A_1  D_1  S_1  
     e(  7 -  7) =      6.51141  eV     1   --> A_1  D_1  S_1  
     e(  8 -  9) =      6.75097  eV     2   --> B_1  D_3  S_3  
     e(  8 -  9) =      6.75097  eV     2   --> B_2  D_4  S_4  
     e( 10 - 10) =      7.55530  eV     1   --> A_1  D_1  S_1  
     e( 11 - 11) =     10.42587  eV     1   --> A_1  D_1  S_1  
     e( 12 - 13) =     10.51466  eV     2   --> B_1  D_3  S_3  
     e( 12 - 13) =     10.51466  eV     2   --> B_2  D_4  S_4  

 **************************************************************************

 **************************************************************************

                    xk=(   0.00000,   0.00000,   0.02500  )

     Band symmetry, C_2v (mm2)  point group:

     e(  1 -  1) =     -8.15284  eV     1   --> A_1  D_1  S_1  
     e(  2 -  3) =     -8.15250  eV     2   --> B_1  D_3  S_3  
     e(  2 -  3) =     -8.15250  eV     2   --> B_2  D_4  S_4  
     e(  4 -  5) =     -8.06784  eV     2   --> A_1  D_1  S_1  
     e(  4 -  5) =     -8.06784  eV     2   --> A_2  D_2  S_2  
     e(  6 -  6) =     -6.19283  eV     1   --> A_1  D_1  S_1  
     e(  7 -  7) =      6.69629  eV     1   --> A_1  D_1  S_1  
     e(  8 -  9) =      6.77789  eV     2   --> B_1  D_3  S_3  
     e(  8 -  9) =      6.77789  eV     2   --> B_2  D_4  S_4  
     e( 10 - 10) =      7.37152  eV     1   --> A_1  D_1  S_1  
     e( 11 - 11) =     10.45596  eV     1   --> A_1  D_1  S_1  
     e( 12 - 13) =     10.47840  eV     2   --> B_1  D_3  S_3  
     e( 12 - 13) =     10.47840  eV     2   --> B_2  D_4  S_4  

 **************************************************************************

 **************************************************************************

                    xk=(   0.00000,   0.00000,   0.00000  )

     point group T_d (-43m) 
     there are  5 classes
     the character table:

       E     8C3   3C2   6S4   6s_d 
A_1    1.00  1.00  1.00  1.00  1.00
A_2    1.00  1.00  1.00 -1.00 -1.00
E      2.00 -1.00  2.00  0.00  0.00
T_1    3.00  0.00 -1.00  1.00 -1.00
T_2    3.00  0.00 -1.00 -1.00  1.00

     the symmetry operations in each class and the name of the first element:

     E        1
                                                                 
     8C3      5    7    8    6   12    9   10   11
                                                                 
     3C2      2    3    4
                                                                 
     6S4     15   16   20   19   23   24
                                                                 
     6s_d    13   14   17   18   21   22
                                                                 

     Band symmetry, T_d (-43m)  point group:

     e(  1 -  3) =     -8.15257  eV     3   --> T_2  G_15 P_4  
     e(  4 -  5) =     -8.06781  eV     2   --> E    G_12 P_3  
     e(  6 -  6) =     -6.19539  eV     1   --> A_1  G_1  P_1  
     e(  7 -  9) =      6.78700  eV     3   --> T_2  G_15 P_4  
     e( 10 - 10) =      7.28115  eV     1   --> A_1  G_1  P_1  
     e( 11 - 13) =     10.46618  eV     3   --> T_2  G_15 P_4  

 **************************************************************************

 **************************************************************************

                    xk=(  -0.01250,   0.01250,   0.01250  )

     point group C_3v (3m)  
     there are  3 classes
     the character table:

       E     2C3   3s_v 
A_1    1.00  1.00  1.00
A_2    1.00  1.00 -1.00
E      2.00 -1.00  0.00

     the symmetry operations in each class and the name of the first element:

     E        1
                                                                 
     2C3      2    3
                                                                 
     3s_v     4    5    6
                                                                 

     Band symmetry, C_3v (3m)   point group:

     e(  1 -  1) =     -8.15274  eV     1   --> A_1  L_1       
     e(  2 -  3) =     -8.15253  eV     2   --> E    L_3       
     e(  4 -  5) =     -8.06781  eV     2   --> E    L_3       
     e(  6 -  6) =     -6.19347  eV     1   --> A_1  L_1       
     e(  7 -  7) =      6.70967  eV     1   --> A_1  L_1       
     e(  8 -  9) =      6.78409  eV     2   --> E    L_3       
     e( 10 - 10) =      7.35032  eV     1   --> A_1  L_1       
     e( 11 - 11) =     10.46829  eV     1   --> A_1  L_1       
     e( 12 - 13) =     10.47047  eV     2   --> E    L_3       

 **************************************************************************

 **************************************************************************

                    xk=(  -0.02500,   0.02500,   0.02500  )

     Band symmetry, C_3v (3m)   point group:

     e(  1 -  1) =     -8.15322  eV     1   --> A_1  L_1       
     e(  2 -  3) =     -8.15241  eV     2   --> E    L_3       
     e(  4 -  5) =     -8.06782  eV     2   --> E    L_3       
     e(  6 -  6) =     -6.18770  eV     1   --> A_1  L_1       
     e(  7 -  7) =      6.54228  eV     1   --> A_1  L_1       
     e(  8 -  9) =      6.77543  eV     2   --> E    L_3       
     e( 10 - 10) =      7.49298  eV     1   --> A_1  L_1       
     e( 11 - 11) =     10.47512  eV     1   --> A_1  L_1       
     e( 12 - 13) =     10.48326  eV     2   --> E    L_3       

 **************************************************************************

 **************************************************************************

                    xk=(  -0.03750,   0.03750,   0.03750  )

     Band symmetry, C_3v (3m)   point group:

     e(  1 -  1) =     -8.15403  eV     1   --> A_1  L_1       
     e(  2 -  3) =     -8.15220  eV     2   --> E    L_3       
     e(  4 -  5) =     -8.06783  eV     2   --> E    L_3       
     e(  6 -  6) =     -6.17811  eV     1   --> A_1  L_1       
     e(  7 -  7) =      6.34311  eV     1   --> A_1  L_1       
     e(  8 -  9) =      6.76120  eV     2   --> E    L_3       
     e( 10 - 10) =      7.65012  eV     1   --> A_1  L_1       
     e( 11 - 11) =     10.48803  eV     1   --> A_1  L_1       
     e( 12 - 13) =     10.50429  eV     2   --> E    L_3       

 **************************************************************************

 **************************************************************************

                    xk=(  -0.05000,   0.05000,   0.05000  )

     Band symmetry, C_3v (3m)   point group:

     e(  1 -  1) =     -8.15530  eV     1   --> A_1  L_1       
     e(  2 -  3) =     -8.15193  eV     2   --> E    L_3       
     e(  4 -  5) =     -8.06789  eV     2   --> E    L_3       
     e(  6 -  6) =     -6.16472  eV     1   --> A_1  L_1       
     e(  7 -  7) =      6.13009  eV     1   --> A_1  L_1       
     e(  8 -  9) =      6.74167  eV     2   --> E    L_3       
     e( 10 - 10) =      7.80257  eV     1   --> A_1  L_1       
     e( 11 - 11) =     10.50916  eV     1   --> A_1  L_1       
     e( 12 - 13) =     10.53312  eV     2   --> E    L_3       

 **************************************************************************

 **************************************************************************

                    xk=(  -0.06250,   0.06250,   0.06250  )

     Band symmetry, C_3v (3m)   point group:

     e(  1 -  1) =     -8.15671  eV     1   --> A_1  L_1       
     e(  2 -  3) =     -8.15157  eV     2   --> E    L_3       
     e(  4 -  5) =     -8.06791  eV     2   --> E    L_3       
     e(  6 -  6) =     -6.14754  eV     1   --> A_1  L_1       
     e(  7 -  7) =      5.90947  eV     1   --> A_1  L_1       
     e(  8 -  9) =      6.71722  eV     2   --> E    L_3       
     e( 10 - 10) =      7.94271  eV     1   --> A_1  L_1       
     e( 11 - 11) =     10.54118  eV     1   --> A_1  L_1       
     e( 12 - 13) =     10.56920  eV     2   --> E    L_3       

 **************************************************************************

 **************************************************************************

                    xk=(  -0.07500,   0.07500,   0.07500  )

     Band symmetry, C_3v (3m)   point group:

     e(  1 -  1) =     -8.15863  eV     1   --> A_1  L_1       
     e(  2 -  3) =     -8.15124  eV     2   --> E    L_3       
     e(  4 -  5) =     -8.06799  eV     2   --> E    L_3       
     e(  6 -  6) =     -6.12661  eV     1   --> A_1  L_1       
     e(  7 -  7) =      5.68408  eV     1   --> A_1  L_1       
     e(  8 -  9) =      6.68827  eV     2   --> E    L_3       
     e( 10 - 10) =      8.06621  eV     1   --> A_1  L_1       
     e( 11 - 11) =     10.58689  eV     1   --> A_1  L_1       
     e( 12 - 13) =     10.61181  eV     2   --> E    L_3       

 **************************************************************************

 **************************************************************************

                    xk=(  -0.08750,   0.08750,   0.08750  )

     Band symmetry, C_3v (3m)   point group:

     e(  1 -  1) =     -8.16062  eV     1   --> A_1  L_1       
     e(  2 -  3) =     -8.15077  eV     2   --> E    L_3       
     e(  4 -  5) =     -8.06810  eV     2   --> E    L_3       
     e(  6 -  6) =     -6.10197  eV     1   --> A_1  L_1       
     e(  7 -  7) =      5.45559  eV     1   --> A_1  L_1       
     e(  8 -  9) =      6.65532  eV     2   --> E    L_3       
     e( 10 - 10) =      8.17032  eV     1   --> A_1  L_1       
     e( 11 - 11) =     10.64890  eV     1   --> A_1  L_1       
     e( 12 - 13) =     10.66015  eV     2   --> E    L_3       

 **************************************************************************

 **************************************************************************

                    xk=(  -0.10000,   0.10000,   0.10000  )

     Band symmetry, C_3v (3m)   point group:

     e(  1 -  1) =     -8.16282  eV     1   --> A_1  L_1       
     e(  2 -  3) =     -8.15019  eV     2   --> E    L_3       
     e(  4 -  5) =     -8.06812  eV     2   --> E    L_3       
     e(  6 -  6) =     -6.07367  eV     1   --> A_1  L_1       
     e(  7 -  7) =      5.22513  eV     1   --> A_1  L_1       
     e(  8 -  9) =      6.61887  eV     2   --> E    L_3       
     e( 10 - 10) =      8.25356  eV     1   --> A_1  L_1       
     e( 11 - 12) =     10.71332  eV     2   --> E    L_3       
     e( 13 - 13) =     10.72900  eV     1   --> A_1  L_1       

 **************************************************************************

 **************************************************************************

                    xk=(  -0.11250,   0.11250,   0.11250  )

     Band symmetry, C_3v (3m)   point group:

     e(  1 -  1) =     -8.16527  eV     1   --> A_1  L_1       
     e(  2 -  3) =     -8.14964  eV     2   --> E    L_3       
     e(  4 -  5) =     -8.06817  eV     2   --> E    L_3       
     e(  6 -  6) =     -6.04178  eV     1   --> A_1  L_1       
     e(  7 -  7) =      4.99353  eV     1   --> A_1  L_1       
     e(  8 -  9) =      6.57944  eV     2   --> E    L_3       
     e( 10 - 10) =      8.31571  eV     1   --> A_1  L_1       
     e( 11 - 12) =     10.77035  eV     2   --> E    L_3       
     e( 13 - 13) =     10.82794  eV     1   --> A_1  L_1       

 **************************************************************************

 **************************************************************************

                    xk=(  -0.12500,   0.12500,   0.12500  )

     Band symmetry, C_3v (3m)   point group:

     e(  1 -  1) =     -8.16790  eV     1   --> A_1  L_1       
     e(  2 -  3) =     -8.14908  eV     2   --> E    L_3       
     e(  4 -  5) =     -8.06820  eV     2   --> E    L_3       
     e(  6 -  6) =     -6.00634  eV     1   --> A_1  L_1       
     e(  7 -  7) =      4.76149  eV     1   --> A_1  L_1       
     e(  8 -  9) =      6.53754  eV     2   --> E    L_3       
     e( 10 - 10) =      8.35780  eV     1   --> A_1  L_1       
     e( 11 - 12) =     10.83021  eV     2   --> E    L_3       
     e( 13 - 13) =     10.94535  eV     1   --> A_1  L_1       

 **************************************************************************

 **************************************************************************

                    xk=(  -0.13750,   0.13750,   0.13750  )

     Band symmetry, C_3v (3m)   point group:

     e(  1 -  1) =     -8.17071  eV     1   --> A_1  L_1       
     e(  2 -  3) =     -8.14834  eV     2   --> E    L_3       
     e(  4 -  5) =     -8.06820  eV     2   --> E    L_3       
     e(  6 -  6) =     -5.96743  eV     1   --> A_1  L_1       
     e(  7 -  7) =      4.52961  eV     1   --> A_1  L_1       
     e(  8 -  9) =      6.49368  eV     2   --> E    L_3       
     e( 10 - 10) =      8.38177  eV     1   --> A_1  L_1       
     e( 11 - 12) =     10.89187  eV     2   --> E    L_3       
     e( 13 - 13) =     11.07989  eV     1   --> A_1  L_1       

 **************************************************************************

 **************************************************************************

                    xk=(  -0.15000,   0.15000,   0.15000  )

     Band symmetry, C_3v (3m)   point group:

     e(  1 -  1) =     -8.17367  eV     1   --> A_1  L_1       
     e(  2 -  3) =     -8.14757  eV     2   --> E    L_3       
     e(  4 -  5) =     -8.06819  eV     2   --> E    L_3       
     e(  6 -  6) =     -5.92513  eV     1   --> A_1  L_1       
     e(  7 -  7) =      4.29840  eV     1   --> A_1  L_1       
     e(  8 -  9) =      6.44830  eV     2   --> E    L_3       
     e( 10 - 10) =      8.39016  eV     1   --> A_1  L_1       
     e( 11 - 12) =     10.95423  eV     2   --> E    L_3       
     e( 13 - 13) =     11.22963  eV     1   --> A_1  L_1       

 **************************************************************************

 **************************************************************************

                    xk=(  -0.16250,   0.16250,   0.16250  )

     Band symmetry, C_3v (3m)   point group:

     e(  1 -  1) =     -8.17671  eV     1   --> A_1  L_1       
     e(  2 -  3) =     -8.14676  eV     2   --> E    L_3       
     e(  4 -  5) =     -8.06816  eV     2   --> E    L_3       
     e(  6 -  6) =     -5.87953  eV     1   --> A_1  L_1       
     e(  7 -  7) =      4.06832  eV     1   --> A_1  L_1       
     e(  8 -  9) =      6.40185  eV     2   --> E    L_3       
     e( 10 - 10) =      8.38567  eV     1   --> A_1  L_1       
     e( 11 - 12) =     11.01621  eV     2   --> E    L_3       
     e( 13 - 13) =     11.39240  eV     1   --> A_1  L_1       

 **************************************************************************

 **************************************************************************

                    xk=(  -0.17500,   0.17500,   0.17500  )

     Band symmetry, C_3v (3m)   point group:

     e(  1 -  1) =     -8.17991  eV     1   --> A_1  L_1       
     e(  2 -  3) =     -8.14592  eV     2   --> E    L_3       
     e(  4 -  5) =     -8.06812  eV     2   --> E    L_3       
     e(  6 -  6) =     -5.83073  eV     1   --> A_1  L_1       
     e(  7 -  7) =      3.83980  eV     1   --> A_1  L_1       
     e(  8 -  9) =      6.35474  eV     2   --> E    L_3       
     e( 10 - 10) =      8.37087  eV     1   --> A_1  L_1       
     e( 11 - 12) =     11.07676  eV     2   --> E    L_3       
     e( 13 - 13) =     11.56605  eV     1   --> A_1  L_1       

 **************************************************************************

 **************************************************************************

                    xk=(  -0.18750,   0.18750,   0.18750  )

     Band symmetry, C_3v (3m)   point group:

     e(  1 -  1) =     -8.18318  eV     1   --> A_1  L_1       
     e(  2 -  3) =     -8.14506  eV     2   --> E    L_3       
     e(  4 -  5) =     -8.06807  eV     2   --> E    L_3       
     e(  6 -  6) =     -5.77885  eV     1   --> A_1  L_1       
     e(  7 -  7) =      3.61325  eV     1   --> A_1  L_1       
     e(  8 -  9) =      6.30733  eV     2   --> E    L_3       
     e( 10 - 10) =      8.34808  eV     1   --> A_1  L_1       
     e( 11 - 12) =     11.13485  eV     2   --> E    L_3       
     e( 13 - 13) =     11.74864  eV     1   --> A_1  L_1       

 **************************************************************************

 **************************************************************************

                    xk=(  -0.20000,   0.20000,   0.20000  )

     Band symmetry, C_3v (3m)   point group:

     e(  1 -  1) =     -8.18638  eV     1   --> A_1  L_1       
     e(  2 -  3) =     -8.14418  eV     2   --> E    L_3       
     e(  4 -  5) =     -8.06793  eV     2   --> E    L_3       
     e(  6 -  6) =     -5.72399  eV     1   --> A_1  L_1       
     e(  7 -  7) =      3.38906  eV     1   --> A_1  L_1       
     e(  8 -  9) =      6.25996  eV     2   --> E    L_3       
     e( 10 - 10) =      8.31929  eV     1   --> A_1  L_1       
     e( 11 - 12) =     11.18956  eV     2   --> E    L_3       
     e( 13 - 13) =     11.93845  eV     1   --> A_1  L_1       

 **************************************************************************

 **************************************************************************

                    xk=(  -0.21250,   0.21250,   0.21250  )

     Band symmetry, C_3v (3m)   point group:

     e(  1 -  1) =     -8.18992  eV     1   --> A_1  L_1       
     e(  2 -  3) =     -8.14347  eV     2   --> E    L_3       
     e(  4 -  5) =     -8.06802  eV     2   --> E    L_3       
     e(  6 -  6) =     -5.66632  eV     1   --> A_1  L_1       
     e(  7 -  7) =      3.16758  eV     1   --> A_1  L_1       
     e(  8 -  9) =      6.21293  eV     2   --> E    L_3       
     e( 10 - 10) =      8.28612  eV     1   --> A_1  L_1       
     e( 11 - 12) =     11.24004  eV     2   --> E    L_3       
     e( 13 - 13) =     12.13397  eV     1   --> A_1  L_1       

 **************************************************************************

 **************************************************************************

                    xk=(  -0.22500,   0.22500,   0.22500  )

     Band symmetry, C_3v (3m)   point group:

     e(  1 -  1) =     -8.19321  eV     1   --> A_1  L_1       
     e(  2 -  3) =     -8.14257  eV     2   --> E    L_3       
     e(  4 -  5) =     -8.06783  eV     2   --> E    L_3       
     e(  6 -  6) =     -5.60596  eV     1   --> A_1  L_1       
     e(  7 -  7) =      2.94920  eV     1   --> A_1  L_1       
     e(  8 -  9) =      6.16651  eV     2   --> E    L_3       
     e( 10 - 10) =      8.24996  eV     1   --> A_1  L_1       
     e( 11 - 12) =     11.28563  eV     2   --> E    L_3       
     e( 13 - 13) =     12.33393  eV     1   --> A_1  L_1       

 **************************************************************************

 **************************************************************************

                    xk=(  -0.23750,   0.23750,   0.23750  )

     Band symmetry, C_3v (3m)   point group:

     e(  1 -  1) =     -8.19658  eV     1   --> A_1  L_1       
     e(  2 -  3) =     -8.14171  eV     2   --> E    L_3       
     e(  4 -  5) =     -8.06769  eV     2   --> E    L_3       
     e(  6 -  6) =     -5.54310  eV     1   --> A_1  L_1       
     e(  7 -  7) =      2.73428  eV     1   --> A_1  L_1       
     e(  8 -  9) =      6.12095  eV     2   --> E    L_3       
     e( 10 - 10) =      8.21185  eV     1   --> A_1  L_1       
     e( 11 - 12) =     11.32581  eV     2   --> E    L_3       
     e( 13 - 13) =     12.53708  eV     1   --> A_1  L_1       

 **************************************************************************

 **************************************************************************

                    xk=(  -0.25000,   0.25000,   0.25000  )

     Band symmetry, C_3v (3m)   point group:

     e(  1 -  1) =     -8.19989  eV     1   --> A_1  L_1       
     e(  2 -  3) =     -8.14081  eV     2   --> E    L_3       
     e(  4 -  5) =     -8.06745  eV     2   --> E    L_3       
     e(  6 -  6) =     -5.47794  eV     1   --> A_1  L_1       
     e(  7 -  7) =      2.52318  eV     1   --> A_1  L_1       
     e(  8 -  9) =      6.07647  eV     2   --> E    L_3       
     e( 10 - 10) =      8.17271  eV     1   --> A_1  L_1       
     e( 11 - 12) =     11.36024  eV     2   --> E    L_3       
     e( 13 - 13) =     12.74224  eV     1   --> A_1  L_1       

 **************************************************************************

 **************************************************************************

                    xk=(  -0.26250,   0.26250,   0.26250  )

     Band symmetry, C_3v (3m)   point group:

     e(  1 -  1) =     -8.20333  eV     1   --> A_1  L_1       
     e(  2 -  3) =     -8.13998  eV     2   --> E    L_3       
     e(  4 -  5) =     -8.06727  eV     2   --> E    L_3       
     e(  6 -  6) =     -5.41069  eV     1   --> A_1  L_1       
     e(  7 -  7) =      2.31629  eV     1   --> A_1  L_1       
     e(  8 -  9) =      6.03325  eV     2   --> E    L_3       
     e( 10 - 10) =      8.13322  eV     1   --> A_1  L_1       
     e( 11 - 12) =     11.38879  eV     2   --> E    L_3       
     e( 13 - 13) =     12.94812  eV     1   --> A_1  L_1       

 **************************************************************************

 **************************************************************************

                    xk=(  -0.27500,   0.27500,   0.27500  )

     Band symmetry, C_3v (3m)   point group:

     e(  1 -  1) =     -8.20656  eV     1   --> A_1  L_1       
     e(  2 -  3) =     -8.13916  eV     2   --> E    L_3       
     e(  4 -  5) =     -8.06695  eV     2   --> E    L_3       
     e(  6 -  6) =     -5.34159  eV     1   --> A_1  L_1       
     e(  7 -  7) =      2.11399  eV     1   --> A_1  L_1       
     e(  8 -  9) =      5.99147  eV     2   --> E    L_3       
     e( 10 - 10) =      8.09398  eV     1   --> A_1  L_1       
     e( 11 - 12) =     11.41153  eV     2   --> E    L_3       
     e( 13 - 13) =     13.15323  eV     1   --> A_1  L_1       

 **************************************************************************

 **************************************************************************

                    xk=(  -0.28750,   0.28750,   0.28750  )

     Band symmetry, C_3v (3m)   point group:

     e(  1 -  1) =     -8.20972  eV     1   --> A_1  L_1       
     e(  2 -  3) =     -8.13844  eV     2   --> E    L_3       
     e(  4 -  5) =     -8.06681  eV     2   --> E    L_3       
     e(  6 -  6) =     -5.27094  eV     1   --> A_1  L_1       
     e(  7 -  7) =      1.91669  eV     1   --> A_1  L_1       
     e(  8 -  9) =      5.95128  eV     2   --> E    L_3       
     e( 10 - 10) =      8.05543  eV     1   --> A_1  L_1       
     e( 11 - 12) =     11.42869  eV     2   --> E    L_3       
     e( 13 - 13) =     13.35567  eV     1   --> A_1  L_1       

 **************************************************************************

 **************************************************************************

                    xk=(  -0.30000,   0.30000,   0.30000  )

     Band symmetry, C_3v (3m)   point group:

     e(  1 -  1) =     -8.21261  eV     1   --> A_1  L_1       
     e(  2 -  3) =     -8.13765  eV     2   --> E    L_3       
     e(  4 -  5) =     -8.06649  eV     2   --> E    L_3       
     e(  6 -  6) =     -5.19905  eV     1   --> A_1  L_1       
     e(  7 -  7) =      1.72484  eV     1   --> A_1  L_1       
     e(  8 -  9) =      5.91283  eV     2   --> E    L_3       
     e( 10 - 10) =      8.01796  eV     1   --> A_1  L_1       
     e( 11 - 12) =     11.44067  eV     2   --> E    L_3       
     e( 13 - 13) =     13.55292  eV     1   --> A_1  L_1       

 **************************************************************************

 **************************************************************************

                    xk=(  -0.31250,   0.31250,   0.31250  )

     Band symmetry, C_3v (3m)   point group:

     e(  1 -  1) =     -8.21556  eV     1   --> A_1  L_1       
     e(  2 -  3) =     -8.13696  eV     2   --> E    L_3       
     e(  4 -  5) =     -8.06622  eV     2   --> E    L_3       
     e(  6 -  6) =     -5.12628  eV     1   --> A_1  L_1       
     e(  7 -  7) =      1.53890  eV     1   --> A_1  L_1       
     e(  8 -  9) =      5.87623  eV     2   --> E    L_3       
     e( 10 - 10) =      7.98185  eV     1   --> A_1  L_1       
     e( 11 - 12) =     11.44797  eV     2   --> E    L_3       
     e( 13 - 13) =     13.74152  eV     1   --> A_1  L_1       

 **************************************************************************

 **************************************************************************

                    xk=(  -0.32500,   0.32500,   0.32500  )

     Band symmetry, C_3v (3m)   point group:

     e(  1 -  1) =     -8.21837  eV     1   --> A_1  L_1       
     e(  2 -  3) =     -8.13632  eV     2   --> E    L_3       
     e(  4 -  5) =     -8.06594  eV     2   --> E    L_3       
     e(  6 -  6) =     -5.05305  eV     1   --> A_1  L_1       
     e(  7 -  7) =      1.35938  eV     1   --> A_1  L_1       
     e(  8 -  9) =      5.84158  eV     2   --> E    L_3       
     e( 10 - 10) =      7.94736  eV     1   --> A_1  L_1       
     e( 11 - 12) =     11.45117  eV     2   --> E    L_3       
     e( 13 - 13) =     13.91679  eV     1   --> A_1  L_1       

 **************************************************************************

 **************************************************************************

                    xk=(  -0.33750,   0.33750,   0.33750  )

     Band symmetry, C_3v (3m)   point group:

     e(  1 -  1) =     -8.22105  eV     1   --> A_1  L_1       
     e(  2 -  3) =     -8.13572  eV     2   --> E    L_3       
     e(  4 -  5) =     -8.06566  eV     2   --> E    L_3       
     e(  6 -  6) =     -4.97983  eV     1   --> A_1  L_1       
     e(  7 -  7) =      1.18686  eV     1   --> A_1  L_1       
     e(  8 -  9) =      5.80898  eV     2   --> E    L_3       
     e( 10 - 10) =      7.91469  eV     1   --> A_1  L_1       
     e( 11 - 12) =     11.45092  eV     2   --> E    L_3       
     e( 13 - 13) =     14.07286  eV     1   --> A_1  L_1       

 **************************************************************************

 **************************************************************************

                    xk=(  -0.35000,   0.35000,   0.35000  )

     Band symmetry, C_3v (3m)   point group:

     e(  1 -  1) =     -8.22358  eV     1   --> A_1  L_1       
     e(  2 -  3) =     -8.13516  eV     2   --> E    L_3       
     e(  4 -  5) =     -8.06537  eV     2   --> E    L_3       
     e(  6 -  6) =     -4.90714  eV     1   --> A_1  L_1       
     e(  7 -  7) =      1.02192  eV     1   --> A_1  L_1       
     e(  8 -  9) =      5.77851  eV     2   --> E    L_3       
     e( 10 - 10) =      7.88399  eV     1   --> A_1  L_1       
     e( 11 - 12) =     11.44784  eV     2   --> E    L_3       
     e( 13 - 13) =     14.20347  eV     1   --> A_1  L_1       

 **************************************************************************

 **************************************************************************

                    xk=(  -0.36250,   0.36250,   0.36250  )

     Band symmetry, C_3v (3m)   point group:

     e(  1 -  1) =     -8.22595  eV     1   --> A_1  L_1       
     e(  2 -  3) =     -8.13466  eV     2   --> E    L_3       
     e(  4 -  5) =     -8.06507  eV     2   --> E    L_3       
     e(  6 -  6) =     -4.83560  eV     1   --> A_1  L_1       
     e(  7 -  7) =      0.86526  eV     1   --> A_1  L_1       
     e(  8 -  9) =      5.75025  eV     2   --> E    L_3       
     e( 10 - 10) =      7.85541  eV     1   --> A_1  L_1       
     e( 11 - 12) =     11.44258  eV     2   --> E    L_3       
     e( 13 - 13) =     14.30420  eV     1   --> A_1  L_1       

 **************************************************************************

 **************************************************************************

                    xk=(  -0.37500,   0.37500,   0.37500  )

     Band symmetry, C_3v (3m)   point group:

     e(  1 -  1) =     -8.22814  eV     1   --> A_1  L_1       
     e(  2 -  3) =     -8.13420  eV     2   --> E    L_3       
     e(  4 -  5) =     -8.06479  eV     2   --> E    L_3       
     e(  6 -  6) =     -4.76586  eV     1   --> A_1  L_1       
     e(  7 -  7) =      0.71760  eV     1   --> A_1  L_1       
     e(  8 -  9) =      5.72426  eV     2   --> E    L_3       
     e( 10 - 10) =      7.82904  eV     1   --> A_1  L_1       
     e( 11 - 12) =     11.43573  eV     2   --> E    L_3       
     e( 13 - 13) =     14.37470  eV     1   --> A_1  L_1       

 **************************************************************************

 **************************************************************************

                    xk=(  -0.38750,   0.38750,   0.38750  )

     Band symmetry, C_3v (3m)   point group:

     e(  1 -  1) =     -8.23012  eV     1   --> A_1  L_1       
     e(  2 -  3) =     -8.13372  eV     2   --> E    L_3       
     e(  4 -  5) =     -8.06437  eV     2   --> E    L_3       
     e(  6 -  6) =     -4.69869  eV     1   --> A_1  L_1       
     e(  7 -  7) =      0.57976  eV     1   --> A_1  L_1       
     e(  8 -  9) =      5.70060  eV     2   --> E    L_3       
     e( 10 - 10) =      7.80499  eV     1   --> A_1  L_1       
     e( 11 - 12) =     11.42786  eV     2   --> E    L_3       
     e( 13 - 13) =     14.41912  eV     1   --> A_1  L_1       

 **************************************************************************

 **************************************************************************

                    xk=(  -0.40000,   0.40000,   0.40000  )

     Band symmetry, C_3v (3m)   point group:

     e(  1 -  1) =     -8.23194  eV     1   --> A_1  L_1       
     e(  2 -  3) =     -8.13335  eV     2   --> E    L_3       
     e(  4 -  5) =     -8.06410  eV     2   --> E    L_3       
     e(  6 -  6) =     -4.63490  eV     1   --> A_1  L_1       
     e(  7 -  7) =      0.45261  eV     1   --> A_1  L_1       
     e(  8 -  9) =      5.67931  eV     2   --> E    L_3       
     e( 10 - 10) =      7.78331  eV     1   --> A_1  L_1       
     e( 11 - 12) =     11.41949  eV     2   --> E    L_3       
     e( 13 - 13) =     14.44387  eV     1   --> A_1  L_1       

 **************************************************************************

 **************************************************************************

                    xk=(  -0.41250,   0.41250,   0.41250  )

     Band symmetry, C_3v (3m)   point group:

     e(  1 -  1) =     -8.23357  eV     1   --> A_1  L_1       
     e(  2 -  3) =     -8.13304  eV     2   --> E    L_3       
     e(  4 -  5) =     -8.06385  eV     2   --> E    L_3       
     e(  6 -  6) =     -4.57538  eV     1   --> A_1  L_1       
     e(  7 -  7) =      0.33709  eV     1   --> A_1  L_1       
     e(  8 -  9) =      5.66043  eV     2   --> E    L_3       
     e( 10 - 10) =      7.76407  eV     1   --> A_1  L_1       
     e( 11 - 12) =     11.41105  eV     2   --> E    L_3       
     e( 13 - 13) =     14.45527  eV     1   --> A_1  L_1       

 **************************************************************************

 **************************************************************************

                    xk=(  -0.42500,   0.42500,   0.42500  )

     Band symmetry, C_3v (3m)   point group:

     e(  1 -  1) =     -8.23483  eV     1   --> A_1  L_1       
     e(  2 -  3) =     -8.13269  eV     2   --> E    L_3       
     e(  4 -  5) =     -8.06356  eV     2   --> E    L_3       
     e(  6 -  6) =     -4.52108  eV     1   --> A_1  L_1       
     e(  7 -  7) =      0.23417  eV     1   --> A_1  L_1       
     e(  8 -  9) =      5.64400  eV     2   --> E    L_3       
     e( 10 - 10) =      7.74732  eV     1   --> A_1  L_1       
     e( 11 - 12) =     11.40297  eV     2   --> E    L_3       
     e( 13 - 13) =     14.45835  eV     1   --> A_1  L_1       

 **************************************************************************

 **************************************************************************

                    xk=(  -0.43750,   0.43750,   0.43750  )

     Band symmetry, C_3v (3m)   point group:

     e(  1 -  1) =     -8.23607  eV     1   --> A_1  L_1       
     e(  2 -  3) =     -8.13253  eV     2   --> E    L_3       
     e(  4 -  5) =     -8.06343  eV     2   --> E    L_3       
     e(  6 -  6) =     -4.47296  eV     1   --> A_1  L_1       
     e(  7 -  7) =      0.14484  eV     1   --> A_1  L_1       
     e(  8 -  9) =      5.63005  eV     2   --> E    L_3       
     e( 10 - 10) =      7.73308  eV     1   --> A_1  L_1       
     e( 11 - 12) =     11.39557  eV     2   --> E    L_3       
     e( 13 - 13) =     14.45674  eV     1   --> A_1  L_1       

 **************************************************************************

 **************************************************************************

                    xk=(  -0.45000,   0.45000,   0.45000  )

     Band symmetry, C_3v (3m)   point group:

     e(  1 -  1) =     -8.23707  eV     1   --> A_1  L_1       
     e(  2 -  3) =     -8.13234  eV     2   --> E    L_3       
     e(  4 -  5) =     -8.06326  eV     2   --> E    L_3       
     e(  6 -  6) =     -4.43196  eV     1   --> A_1  L_1       
     e(  7 -  7) =      0.07010  eV     1   --> A_1  L_1       
     e(  8 -  9) =      5.61860  eV     2   --> E    L_3       
     e( 10 - 10) =      7.72140  eV     1   --> A_1  L_1       
     e( 11 - 12) =     11.38913  eV     2   --> E    L_3       
     e( 13 - 13) =     14.45294  eV     1   --> A_1  L_1       

 **************************************************************************

 **************************************************************************

                    xk=(  -0.46250,   0.46250,   0.46250  )

     Band symmetry, C_3v (3m)   point group:

     e(  1 -  1) =     -8.23785  eV     1   --> A_1  L_1       
     e(  2 -  3) =     -8.13222  eV     2   --> E    L_3       
     e(  4 -  5) =     -8.06324  eV     2   --> E    L_3       
     e(  6 -  6) =     -4.39899  eV     1   --> A_1  L_1       
     e(  7 -  7) =      0.01085  eV     1   --> A_1  L_1       
     e(  8 -  9) =      5.60968  eV     2   --> E    L_3       
     e( 10 - 10) =      7.71229  eV     1   --> A_1  L_1       
     e( 11 - 12) =     11.38388  eV     2   --> E    L_3       
     e( 13 - 13) =     14.44860  eV     1   --> A_1  L_1       

 **************************************************************************

[...]
     e(  5 -  5) =     -8.06549  eV     1   --> A'             
     e(  6 -  6) =     -5.41625  eV     1   --> A'             
     e(  7 -  7) =      2.72450  eV     1   --> A'             
     e(  8 -  8) =      4.71635  eV     1   --> A'             
     e(  9 -  9) =      6.28783  eV     1   --> A''            
     e( 10 - 10) =      9.32116  eV     1   --> A'             
     e( 11 - 11) =     11.14442  eV     1   --> A'             
     e( 12 - 12) =     11.27084  eV     1   --> A''            
     e( 13 - 13) =     12.40614  eV     1   --> A'             

 **************************************************************************

 **************************************************************************

                    xk=(  -0.30000,   0.00000,   0.30000  )

     Band symmetry, C_s (m)     point group:

     e(  1 -  1) =     -8.19974  eV     1   --> A'             
     e(  2 -  2) =     -8.14127  eV     1   --> A''            
     e(  3 -  3) =     -8.13768  eV     1   --> A'             
     e(  4 -  4) =     -8.07106  eV     1   --> A''            
     e(  5 -  5) =     -8.06565  eV     1   --> A'             
     e(  6 -  6) =     -5.49977  eV     1   --> A'             
     e(  7 -  7) =      2.94463  eV     1   --> A'             
     e(  8 -  8) =      4.88780  eV     1   --> A'             
     e(  9 -  9) =      6.35038  eV     1   --> A''            
     e( 10 - 10) =      9.26118  eV     1   --> A'             
     e( 11 - 11) =     11.04073  eV     1   --> A'             
     e( 12 - 12) =     11.17872  eV     1   --> A''            
     e( 13 - 13) =     12.38145  eV     1   --> A'             

 **************************************************************************

 **************************************************************************

                    xk=(  -0.28125,   0.00000,   0.28125  )

     Band symmetry, C_s (m)     point group:

     e(  1 -  1) =     -8.19564  eV     1   --> A'             
     e(  2 -  2) =     -8.14255  eV     1   --> A''            
     e(  3 -  3) =     -8.13891  eV     1   --> A'             
     e(  4 -  4) =     -8.07090  eV     1   --> A''            
     e(  5 -  5) =     -8.06585  eV     1   --> A'             
     e(  6 -  6) =     -5.57954  eV     1   --> A'             
     e(  7 -  7) =      3.17119  eV     1   --> A'             
     e(  8 -  8) =      5.06010  eV     1   --> A'             
     e(  9 -  9) =      6.40852  eV     1   --> A''            
     e( 10 - 10) =      9.19603  eV     1   --> A'             
     e( 11 - 11) =     10.94523  eV     1   --> A'             
     e( 12 - 12) =     11.09227  eV     1   --> A''            
     e( 13 - 13) =     12.33124  eV     1   --> A'             

 **************************************************************************

 **************************************************************************

                    xk=(  -0.26250,   0.00000,   0.26250  )

     Band symmetry, C_s (m)     point group:

     e(  1 -  1) =     -8.19146  eV     1   --> A'             
     e(  2 -  2) =     -8.14376  eV     1   --> A''            
     e(  3 -  3) =     -8.14017  eV     1   --> A'             
     e(  4 -  4) =     -8.07061  eV     1   --> A''            
     e(  5 -  5) =     -8.06603  eV     1   --> A'             
     e(  6 -  6) =     -5.65529  eV     1   --> A'             
     e(  7 -  7) =      3.40385  eV     1   --> A'             
     e(  8 -  8) =      5.23221  eV     1   --> A'             
     e(  9 -  9) =      6.46215  eV     1   --> A''            
     e( 10 - 10) =      9.12596  eV     1   --> A'             
     e( 11 - 11) =     10.85815  eV     1   --> A'             
     e( 12 - 12) =     11.01147  eV     1   --> A''            
     e( 13 - 13) =     12.25158  eV     1   --> A'             

 **************************************************************************

 **************************************************************************

                    xk=(  -0.24375,   0.00000,   0.24375  )

     Band symmetry, C_s (m)     point group:

     e(  1 -  1) =     -8.18732  eV     1   --> A'             
     e(  2 -  2) =     -8.14493  eV     1   --> A''            
     e(  3 -  3) =     -8.14147  eV     1   --> A'             
     e(  4 -  4) =     -8.07039  eV     1   --> A''            
     e(  5 -  5) =     -8.06625  eV     1   --> A'             
     e(  6 -  6) =     -5.72678  eV     1   --> A'             
     e(  7 -  7) =      3.64226  eV     1   --> A'             
     e(  8 -  8) =      5.40295  eV     1   --> A'             
     e(  9 -  9) =      6.51124  eV     1   --> A''            
     e( 10 - 10) =      9.05088  eV     1   --> A'             
     e( 11 - 11) =     10.77973  eV     1   --> A'             
     e( 12 - 12) =     10.93628  eV     1   --> A''            
     e( 13 - 13) =     12.14146  eV     1   --> A'             

 **************************************************************************

 **************************************************************************

                    xk=(  -0.22500,   0.00000,   0.22500  )

     Band symmetry, C_s (m)     point group:

     e(  1 -  1) =     -8.18330  eV     1   --> A'             
     e(  2 -  2) =     -8.14603  eV     1   --> A''            
     e(  3 -  3) =     -8.14292  eV     1   --> A'             
     e(  4 -  4) =     -8.07023  eV     1   --> A''            
     e(  5 -  5) =     -8.06654  eV     1   --> A'             
     e(  6 -  6) =     -5.79382  eV     1   --> A'             
     e(  7 -  7) =      3.88605  eV     1   --> A'             
     e(  8 -  8) =      5.57104  eV     1   --> A'             
     e(  9 -  9) =      6.55578  eV     1   --> A''            
     e( 10 - 10) =      8.97032  eV     1   --> A'             
     e( 11 - 11) =     10.71015  eV     1   --> A'             
     e( 12 - 12) =     10.86671  eV     1   --> A''            
     e( 13 - 13) =     12.00318  eV     1   --> A'             

 **************************************************************************

 **************************************************************************

                    xk=(  -0.20625,   0.00000,   0.20625  )

     Band symmetry, C_s (m)     point group:

     e(  1 -  1) =     -8.17927  eV     1   --> A'             
     e(  2 -  2) =     -8.14706  eV     1   --> A''            
     e(  3 -  3) =     -8.14423  eV     1   --> A'             
     e(  4 -  4) =     -8.06999  eV     1   --> A''            
     e(  5 -  5) =     -8.06676  eV     1   --> A'             
     e(  6 -  6) =     -5.85618  eV     1   --> A'             
     e(  7 -  7) =      4.13478  eV     1   --> A'             
     e(  8 -  8) =      5.73506  eV     1   --> A'             
     e(  9 -  9) =      6.59586  eV     1   --> A''            
     e( 10 - 10) =      8.88341  eV     1   --> A'             
     e( 11 - 11) =     10.64961  eV     1   --> A'             
     e( 12 - 12) =     10.80272  eV     1   --> A''            
     e( 13 - 13) =     11.84193  eV     1   --> A'             

 **************************************************************************

 **************************************************************************

                    xk=(  -0.18750,   0.00000,   0.18750  )

     Band symmetry, C_s (m)     point group:

     e(  1 -  1) =     -8.17536  eV     1   --> A'             
     e(  2 -  2) =     -8.14802  eV     1   --> A''            
     e(  3 -  3) =     -8.14548  eV     1   --> A'             
     e(  4 -  4) =     -8.06971  eV     1   --> A''            
     e(  5 -  5) =     -8.06694  eV     1   --> A'             
     e(  6 -  6) =     -5.91370  eV     1   --> A'             
     e(  7 -  7) =      4.38798  eV     1   --> A'             
     e(  8 -  8) =      5.89345  eV     1   --> A'             
     e(  9 -  9) =      6.63158  eV     1   --> A''            
     e( 10 - 10) =      8.78884  eV     1   --> A'             
     e( 11 - 11) =     10.59818  eV     1   --> A'             
     e( 12 - 12) =     10.74432  eV     1   --> A''            
     e( 13 - 13) =     11.66477  eV     1   --> A'             

 **************************************************************************

 **************************************************************************

                    xk=(  -0.16875,   0.00000,   0.16875  )

     Band symmetry, C_s (m)     point group:

     e(  1 -  1) =     -8.17162  eV     1   --> A'             
     e(  2 -  2) =     -8.14886  eV     1   --> A''            
     e(  3 -  3) =     -8.14664  eV     1   --> A'             
     e(  4 -  4) =     -8.06943  eV     1   --> A''            
     e(  5 -  5) =     -8.06711  eV     1   --> A'             
     e(  6 -  6) =     -5.96623  eV     1   --> A'             
     e(  7 -  7) =      4.64509  eV     1   --> A'             
     e(  8 -  8) =      6.04452  eV     1   --> A'             
     e(  9 -  9) =      6.66310  eV     1   --> A''            
     e( 10 - 10) =      8.68488  eV     1   --> A'             
     e( 11 - 11) =     10.55586  eV     1   --> A'             
     e( 12 - 12) =     10.69148  eV     1   --> A''            
     e( 13 - 13) =     11.47961  eV     1   --> A'             

 **************************************************************************

 **************************************************************************

                    xk=(  -0.15000,   0.00000,   0.15000  )

     Band symmetry, C_s (m)     point group:

     e(  1 -  1) =     -8.16810  eV     1   --> A'             
     e(  2 -  2) =     -8.14966  eV     1   --> A''            
     e(  3 -  3) =     -8.14782  eV     1   --> A'             
     e(  4 -  4) =     -8.06919  eV     1   --> A''            
     e(  5 -  5) =     -8.06728  eV     1   --> A'             
     e(  6 -  6) =     -6.01362  eV     1   --> A'             
     e(  7 -  7) =      4.90544  eV     1   --> A'             
     e(  8 -  8) =      6.18647  eV     1   --> A'             
     e(  9 -  9) =      6.69058  eV     1   --> A''            
     e( 10 - 10) =      8.56951  eV     1   --> A'             
     e( 11 - 11) =     10.52245  eV     1   --> A'             
     e( 12 - 12) =     10.64420  eV     1   --> A''            
     e( 13 - 13) =     11.29437  eV     1   --> A'             

 **************************************************************************

 **************************************************************************

                    xk=(  -0.13125,   0.00000,   0.13125  )

     Band symmetry, C_s (m)     point group:

     e(  1 -  1) =     -8.16485  eV     1   --> A'             
     e(  2 -  2) =     -8.15037  eV     1   --> A''            
     e(  3 -  3) =     -8.14893  eV     1   --> A'             
     e(  4 -  4) =     -8.06897  eV     1   --> A''            
     e(  5 -  5) =     -8.06744  eV     1   --> A'             
     e(  6 -  6) =     -6.05574  eV     1   --> A'             
     e(  7 -  7) =      5.16825  eV     1   --> A'             
     e(  8 -  8) =      6.31744  eV     1   --> A'             
     e(  9 -  9) =      6.71422  eV     1   --> A''            
     e( 10 - 10) =      8.44063  eV     1   --> A'             
     e( 11 - 11) =     10.49754  eV     1   --> A'             
     e( 12 - 12) =     10.60249  eV     1   --> A''            
     e( 13 - 13) =     11.11648  eV     1   --> A'             

 **************************************************************************

 **************************************************************************

                    xk=(  -0.11250,   0.00000,   0.11250  )

     Band symmetry, C_s (m)     point group:

     e(  1 -  1) =     -8.16173  eV     1   --> A'             
     e(  2 -  2) =     -8.15087  eV     1   --> A''            
     e(  3 -  3) =     -8.14987  eV     1   --> A'             
     e(  4 -  4) =     -8.06860  eV     1   --> A''            
     e(  5 -  5) =     -8.06754  eV     1   --> A'             
     e(  6 -  6) =     -6.09248  eV     1   --> A'             
     e(  7 -  7) =      5.43250  eV     1   --> A'             
     e(  8 -  8) =      6.43558  eV     1   --> A'             
     e(  9 -  9) =      6.73423  eV     1   --> A''            
     e( 10 - 10) =      8.29637  eV     1   --> A'             
     e( 11 - 11) =     10.48044  eV     1   --> A'             
     e( 12 - 12) =     10.56634  eV     1   --> A''            
     e( 13 - 13) =     10.95248  eV     1   --> A'             

 **************************************************************************

 **************************************************************************

                    xk=(  -0.09375,   0.00000,   0.09375  )

     Band symmetry, C_s (m)     point group:

     e(  1 -  1) =     -8.15905  eV     1   --> A'             
     e(  2 -  2) =     -8.15138  eV     1   --> A''            
     e(  3 -  3) =     -8.15071  eV     1   --> A'             
     e(  4 -  4) =     -8.06839  eV     1   --> A''            
     e(  5 -  5) =     -8.06766  eV     1   --> A'             
     e(  6 -  6) =     -6.12374  eV     1   --> A'             
     e(  7 -  7) =      5.69685  eV     1   --> A'             
     e(  8 -  8) =      6.53907  eV     1   --> A'             
     e(  9 -  9) =      6.75077  eV     1   --> A''            
     e( 10 - 10) =      8.13558  eV     1   --> A'             
     e( 11 - 11) =     10.47007  eV     1   --> A'             
     e( 12 - 12) =     10.53574  eV     1   --> A''            
     e( 13 - 13) =     10.80771  eV     1   --> A'             

 **************************************************************************

 **************************************************************************

                    xk=(  -0.07500,   0.00000,   0.07500  )

     Band symmetry, C_s (m)     point group:

     e(  1 -  1) =     -8.15671  eV     1   --> A'             
     e(  2 -  2) =     -8.15181  eV     1   --> A''            
     e(  3 -  3) =     -8.15131  eV     1   --> A'             
     e(  4 -  4) =     -8.06819  eV     1   --> A''            
     e(  5 -  5) =     -8.06766  eV     1   --> A'             
     e(  6 -  6) =     -6.14944  eV     1   --> A'             
     e(  7 -  7) =      5.95939  eV     1   --> A'             
     e(  8 -  8) =      6.62625  eV     1   --> A'             
     e(  9 -  9) =      6.76404  eV     1   --> A''            
     e( 10 - 10) =      7.95840  eV     1   --> A'             
     e( 11 - 11) =     10.46508  eV     1   --> A'             
     e( 12 - 12) =     10.51070  eV     1   --> A''            
     e( 13 - 13) =     10.68611  eV     1   --> A'             

 **************************************************************************

 **************************************************************************

                    xk=(  -0.05625,   0.00000,   0.05625  )

     Band symmetry, C_s (m)     point group:

     e(  1 -  1) =     -8.15490  eV     1   --> A'             
     e(  2 -  2) =     -8.15213  eV     1   --> A''            
     e(  3 -  3) =     -8.15188  eV     1   --> A'             
     e(  4 -  4) =     -8.06801  eV     1   --> A''            
     e(  5 -  5) =     -8.06773  eV     1   --> A'             
     e(  6 -  6) =     -6.16950  eV     1   --> A'             
     e(  7 -  7) =      6.21702  eV     1   --> A'             
     e(  8 -  8) =      6.69566  eV     1   --> A'             
     e(  9 -  9) =      6.77418  eV     1   --> A''            
     e( 10 - 10) =      7.76700  eV     1   --> A'             
     e( 11 - 11) =     10.46379  eV     1   --> A'             
     e( 12 - 12) =     10.49122  eV     1   --> A''            
     e( 13 - 13) =     10.59021  eV     1   --> A'             

 **************************************************************************

 **************************************************************************

                    xk=(  -0.03750,   0.00000,   0.03750  )

     Band symmetry, C_s (m)     point group:

     e(  1 -  1) =     -8.15360  eV     1   --> A'             
     e(  2 -  2) =     -8.15238  eV     1   --> A''            
     e(  3 -  3) =     -8.15222  eV     1   --> A'             
     e(  4 -  4) =     -8.06788  eV     1   --> A''            
     e(  5 -  5) =     -8.06776  eV     1   --> A'             
     e(  6 -  6) =     -6.18387  eV     1   --> A'             
     e(  7 -  7) =      6.46335  eV     1   --> A'             
     e(  8 -  8) =      6.74611  eV     1   --> A'             
     e(  9 -  9) =      6.78133  eV     1   --> A''            
     e( 10 - 10) =      7.56762  eV     1   --> A'             
     e( 11 - 11) =     10.46450  eV     1   --> A'             
     e( 12 - 12) =     10.47731  eV     1   --> A''            
     e( 13 - 13) =     10.52134  eV     1   --> A'             

 **************************************************************************

 **************************************************************************

                    xk=(  -0.01875,   0.00000,   0.01875  )

     Band symmetry, C_s (m)     point group:

     e(  1 -  1) =     -8.15283  eV     1   --> A'             
     e(  2 -  3) =     -8.15252  eV     2   --> A'             
     e(  2 -  3) =     -8.15252  eV     2   --> A''            
     e(  4 -  5) =     -8.06783  eV     2   --> A'             
     e(  4 -  5) =     -8.06783  eV     2   --> A''            
     e(  6 -  6) =     -6.19250  eV     1   --> A'             
     e(  7 -  7) =      6.67928  eV     1   --> A'             
     e(  8 -  8) =      6.77673  eV     1   --> A'             
     e(  9 -  9) =      6.78559  eV     1   --> A''            
     e( 10 - 10) =      7.37961  eV     1   --> A'             
     e( 11 - 11) =     10.46566  eV     1   --> A'             
     e( 12 - 12) =     10.46896  eV     1   --> A''            
     e( 13 - 13) =     10.47996  eV     1   --> A'             

 **************************************************************************

 **************************************************************************

                    xk=(   0.00000,   0.00000,   0.00000  )

     point group T_d (-43m) 
     there are  5 classes
     the character table:

       E     8C3   3C2   6S4   6s_d 
A_1    1.00  1.00  1.00  1.00  1.00
A_2    1.00  1.00  1.00 -1.00 -1.00
E      2.00 -1.00  2.00  0.00  0.00
T_1    3.00  0.00 -1.00  1.00 -1.00
T_2    3.00  0.00 -1.00 -1.00  1.00

     the symmetry operations in each class and the name of the first element:

     E        1
                                                                 
     8C3      5    7    8    6   12    9   10   11
                                                                 
     3C2      2    3    4
                                                                 
     6S4     15   16   20   19   23   24
                                                                 
     6s_d    13   14   17   18   21   22
                                                                 

     Band symmetry, T_d (-43m)  point group:

     e(  1 -  3) =     -8.15257  eV     3   --> T_2  G_15 P_4  
     e(  4 -  5) =     -8.06781  eV     2   --> E    G_12 P_3  
     e(  6 -  6) =     -6.19539  eV     1   --> A_1  G_1  P_1  
     e(  7 -  9) =      6.78700  eV     3   --> T_2  G_15 P_4  
     e( 10 - 10) =      7.28115  eV     1   --> A_1  G_1  P_1  
     e( 11 - 13) =     10.46618  eV     3   --> T_2  G_15 P_4  

 **************************************************************************

     BANDS        :     13.39s CPU     13.69s WALL


   This run was terminated on:  13:22: 9  11Jun2024            

=------------------------------------------------------------------------------=
   JOB DONE.
=------------------------------------------------------------------------------=
