
     Program PWSCF v.7.2 starts on 11Jun2024 at 19: 1:35 

     This program is part of the open-source Quantum ESPRESSO suite
     for quantum simulation of materials; please cite
         "P. Giannozzi et al., J. Phys.:Condens. Matter 21 395502 (2009);
         "P. Giannozzi et al., J. Phys.:Condens. Matter 29 465901 (2017);
         "P. Giannozzi et al., J. Chem. Phys. 152 154105 (2020);
          URL http://www.quantum-espresso.org", 
     in publications or presentations arising from this work. More details at
     http://www.quantum-espresso.org/quote

     Serial version
     10169 MiB available memory on the printing compute node when the environment starts

     Waiting for input...
     Reading input from standard input

     Current dimensions of program PWSCF are:
     Max number of different atomic species (ntypx) = 10
     Max number of k-points (npk) =  40000
     Max angular momentum in pseudopotentials (lmaxx) =  4

     Atomic positions and unit cell read from directory:
     ./SCRATCH/gallium arsenide.save/

     file Ga.pz-dn-rrkjus_psl.0.2.UPF: wavefunction(s)  4S 3D renormalized


     G-vector sticks info
     --------------------
     sticks:   dense  smooth     PW     G-vecs:    dense   smooth      PW
     Sum        1237     613    199                28763    10081    1837

     Using Slab Decomposition



     bravais-lattice index     =            2
     lattice parameter (alat)  =      10.5897  a.u.
     unit-cell volume          =     296.8843 (a.u.)^3
     number of atoms/cell      =            2
     number of atomic types    =            2
     number of electrons       =        18.00
     number of Kohn-Sham states=           13
     kinetic-energy cutoff     =      40.0000  Ry
     charge density cutoff     =     320.0000  Ry
     Exchange-correlation= LDA
                           (   1   1   0   0   0   0   0)

     celldm(1)=  10.589669  celldm(2)=   0.000000  celldm(3)=   0.000000
     celldm(4)=   0.000000  celldm(5)=   0.000000  celldm(6)=   0.000000

     crystal axes: (cart. coord. in units of alat)
               a(1) = (  -0.500000   0.000000   0.500000 )  
               a(2) = (   0.000000   0.500000   0.500000 )  
               a(3) = (  -0.500000   0.500000   0.000000 )  

     reciprocal axes: (cart. coord. in units 2 pi/alat)
               b(1) = ( -1.000000 -1.000000  1.000000 )  
               b(2) = (  1.000000  1.000000  1.000000 )  
               b(3) = ( -1.000000  1.000000 -1.000000 )  


     PseudoPot. # 1 for Ga read from file:
     /home/paolo/LABQSM/pseudo/Ga.pz-dn-rrkjus_psl.0.2.UPF
     MD5 check sum: 337958ae198bc3768054a43796a587a1
     Pseudo is Ultrasoft + core correction, Zval = 13.0
     Generated using "atomic" code by A. Dal Corso  v.5.0.2 svn rev. 9415
     Using radial grid of 1205 points,  6 beta functions with: 
                l(1) =   0
                l(2) =   0
                l(3) =   1
                l(4) =   1
                l(5) =   2
                l(6) =   2
     Q(r) pseudized with 0 coefficients 


     PseudoPot. # 2 for As read from file:
     /home/paolo/LABQSM/pseudo/As.pz-n-rrkjus_psl.0.2.UPF
     MD5 check sum: f80104272e9b817acfe428865afbdb7e
     Pseudo is Ultrasoft + core correction, Zval =  5.0
     Generated using "atomic" code by A. Dal Corso  v.5.0.2 svn rev. 9415
     Using radial grid of 1209 points,  4 beta functions with: 
                l(1) =   0
                l(2) =   0
                l(3) =   1
                l(4) =   1
     Q(r) pseudized with 0 coefficients 


     atomic species   valence    mass     pseudopotential
        Ga            13.00    69.72300     Ga( 1.00)
        As             5.00    74.92200     As( 1.00)

     24 Sym. Ops. (no inversion) found


                                    s                        frac. trans.

      isym =  1     identity                                     

 cryst.   s( 1) = (     1          0          0      )
                  (     0          1          0      )
                  (     0          0          1      )

 cart.    s( 1) = (  1.0000000  0.0000000  0.0000000 )
                  (  0.0000000  1.0000000  0.0000000 )
                  (  0.0000000  0.0000000  1.0000000 )


      isym =  2     180 deg rotation - cart. axis [0,0,1]        

 cryst.   s( 2) = (     0          1         -1      )
                  (     1          0         -1      )
                  (     0          0         -1      )

 cart.    s( 2) = ( -1.0000000  0.0000000  0.0000000 )
                  (  0.0000000 -1.0000000  0.0000000 )
                  (  0.0000000  0.0000000  1.0000000 )


      isym =  3     180 deg rotation - cart. axis [0,1,0]        

 cryst.   s( 3) = (    -1          0          0      )
                  (    -1          0          1      )
                  (    -1          1          0      )

 cart.    s( 3) = ( -1.0000000  0.0000000  0.0000000 )
                  (  0.0000000  1.0000000  0.0000000 )
                  (  0.0000000  0.0000000 -1.0000000 )


      isym =  4     180 deg rotation - cart. axis [1,0,0]        

 cryst.   s( 4) = (     0         -1          1      )
                  (     0         -1          0      )
                  (     1         -1          0      )

 cart.    s( 4) = (  1.0000000  0.0000000  0.0000000 )
                  (  0.0000000 -1.0000000  0.0000000 )
                  (  0.0000000  0.0000000 -1.0000000 )


      isym =  5     120 deg rotation - cart. axis [-1,-1,-1]     

 cryst.   s( 5) = (    -1          0          1      )
                  (    -1          1          0      )
                  (    -1          0          0      )

 cart.    s( 5) = (  0.0000000  1.0000000  0.0000000 )
                  (  0.0000000  0.0000000  1.0000000 )
                  (  1.0000000  0.0000000  0.0000000 )


      isym =  6     120 deg rotation - cart. axis [-1,1,1]       

 cryst.   s( 6) = (     0          1          0      )
                  (     0          0          1      )
                  (     1          0          0      )

 cart.    s( 6) = (  0.0000000 -1.0000000  0.0000000 )
                  (  0.0000000  0.0000000  1.0000000 )
                  ( -1.0000000  0.0000000  0.0000000 )


      isym =  7     120 deg rotation - cart. axis [1,1,-1]       

 cryst.   s( 7) = (     1          0         -1      )
                  (     0          0         -1      )
                  (     0          1         -1      )

 cart.    s( 7) = (  0.0000000  1.0000000  0.0000000 )
                  (  0.0000000  0.0000000 -1.0000000 )
                  ( -1.0000000  0.0000000  0.0000000 )


      isym =  8     120 deg rotation - cart. axis [1,-1,1]       

 cryst.   s( 8) = (     0         -1          0      )
                  (     1         -1          0      )
                  (     0         -1          1      )

 cart.    s( 8) = (  0.0000000 -1.0000000  0.0000000 )
                  (  0.0000000  0.0000000 -1.0000000 )
                  (  1.0000000  0.0000000  0.0000000 )


      isym =  9     120 deg rotation - cart. axis [1,1,1]        

 cryst.   s( 9) = (     0          0         -1      )
                  (     0          1         -1      )
                  (     1          0         -1      )

 cart.    s( 9) = (  0.0000000  0.0000000  1.0000000 )
                  (  1.0000000  0.0000000  0.0000000 )
                  (  0.0000000  1.0000000  0.0000000 )


      isym = 10     120 deg rotation - cart. axis [-1,1,-1]      

 cryst.   s(10) = (    -1          1          0      )
                  (    -1          0          0      )
                  (    -1          0          1      )

 cart.    s(10) = (  0.0000000  0.0000000  1.0000000 )
                  ( -1.0000000  0.0000000  0.0000000 )
                  (  0.0000000 -1.0000000  0.0000000 )


      isym = 11     120 deg rotation - cart. axis [1,-1,-1]      

 cryst.   s(11) = (     0          0          1      )
                  (     1          0          0      )
                  (     0          1          0      )

 cart.    s(11) = (  0.0000000  0.0000000 -1.0000000 )
                  ( -1.0000000  0.0000000  0.0000000 )
                  (  0.0000000  1.0000000  0.0000000 )


      isym = 12     120 deg rotation - cart. axis [-1,-1,1]      

 cryst.   s(12) = (     1         -1          0      )
                  (     0         -1          1      )
                  (     0         -1          0      )

 cart.    s(12) = (  0.0000000  0.0000000 -1.0000000 )
                  (  1.0000000  0.0000000  0.0000000 )
                  (  0.0000000 -1.0000000  0.0000000 )


      isym = 13     inv. 180 deg rotation - cart. axis [1,1,0]   

 cryst.   s(13) = (     0          1          0      )
                  (     1          0          0      )
                  (     0          0          1      )

 cart.    s(13) = (  0.0000000 -1.0000000  0.0000000 )
                  ( -1.0000000  0.0000000  0.0000000 )
                  (  0.0000000  0.0000000  1.0000000 )


      isym = 14     inv. 180 deg rotation - cart. axis [1,-1,0]  

 cryst.   s(14) = (     1          0         -1      )
                  (     0          1         -1      )
                  (     0          0         -1      )

 cart.    s(14) = (  0.0000000  1.0000000  0.0000000 )
                  (  1.0000000  0.0000000  0.0000000 )
                  (  0.0000000  0.0000000  1.0000000 )


      isym = 15     inv.  90 deg rotation - cart. axis [0,0,-1]  

 cryst.   s(15) = (     0         -1          0      )
                  (     0         -1          1      )
                  (     1         -1          0      )

 cart.    s(15) = (  0.0000000 -1.0000000  0.0000000 )
                  (  1.0000000  0.0000000  0.0000000 )
                  (  0.0000000  0.0000000 -1.0000000 )


      isym = 16     inv.  90 deg rotation - cart. axis [0,0,1]   

 cryst.   s(16) = (    -1          0          1      )
                  (    -1          0          0      )
                  (    -1          1          0      )

 cart.    s(16) = (  0.0000000  1.0000000  0.0000000 )
                  ( -1.0000000  0.0000000  0.0000000 )
                  (  0.0000000  0.0000000 -1.0000000 )


      isym = 17     inv. 180 deg rotation - cart. axis [1,0,1]   

 cryst.   s(17) = (     1          0          0      )
                  (     0          0          1      )
                  (     0          1          0      )

 cart.    s(17) = (  0.0000000  0.0000000 -1.0000000 )
                  (  0.0000000  1.0000000  0.0000000 )
                  ( -1.0000000  0.0000000  0.0000000 )


      isym = 18     inv. 180 deg rotation - cart. axis [-1,0,1]  

 cryst.   s(18) = (    -1          0          0      )
                  (    -1          1          0      )
                  (    -1          0          1      )

 cart.    s(18) = (  0.0000000  0.0000000  1.0000000 )
                  (  0.0000000  1.0000000  0.0000000 )
                  (  1.0000000  0.0000000  0.0000000 )


      isym = 19     inv.  90 deg rotation - cart. axis [0,1,0]   

 cryst.   s(19) = (     0         -1          1      )
                  (     1         -1          0      )
                  (     0         -1          0      )

 cart.    s(19) = (  0.0000000  0.0000000 -1.0000000 )
                  (  0.0000000 -1.0000000  0.0000000 )
                  (  1.0000000  0.0000000  0.0000000 )


      isym = 20     inv.  90 deg rotation - cart. axis [0,-1,0]  

 cryst.   s(20) = (     0          1         -1      )
                  (     0          0         -1      )
                  (     1          0         -1      )

 cart.    s(20) = (  0.0000000  0.0000000  1.0000000 )
                  (  0.0000000 -1.0000000  0.0000000 )
                  ( -1.0000000  0.0000000  0.0000000 )


      isym = 21     inv. 180 deg rotation - cart. axis [0,1,1]   

 cryst.   s(21) = (     1         -1          0      )
                  (     0         -1          0      )
                  (     0         -1          1      )

 cart.    s(21) = (  1.0000000  0.0000000  0.0000000 )
                  (  0.0000000  0.0000000 -1.0000000 )
                  (  0.0000000 -1.0000000  0.0000000 )


      isym = 22     inv. 180 deg rotation - cart. axis [0,1,-1]  

 cryst.   s(22) = (     0          0          1      )
                  (     0          1          0      )
                  (     1          0          0      )

 cart.    s(22) = (  1.0000000  0.0000000  0.0000000 )
                  (  0.0000000  0.0000000  1.0000000 )
                  (  0.0000000  1.0000000  0.0000000 )


      isym = 23     inv.  90 deg rotation - cart. axis [-1,0,0]  

 cryst.   s(23) = (     0          0         -1      )
                  (     1          0         -1      )
                  (     0          1         -1      )

 cart.    s(23) = ( -1.0000000  0.0000000  0.0000000 )
                  (  0.0000000  0.0000000 -1.0000000 )
                  (  0.0000000  1.0000000  0.0000000 )


      isym = 24     inv.  90 deg rotation - cart. axis [1,0,0]   

 cryst.   s(24) = (    -1          1          0      )
                  (    -1          0          1      )
                  (    -1          0          0      )

 cart.    s(24) = ( -1.0000000  0.0000000  0.0000000 )
                  (  0.0000000  0.0000000  1.0000000 )
                  (  0.0000000 -1.0000000  0.0000000 )


     point group T_d (-43m) 
     there are  5 classes
     the character table:

       E     8C3   3C2   6S4   6s_d 
A_1    1.00  1.00  1.00  1.00  1.00
A_2    1.00  1.00  1.00 -1.00 -1.00
E      2.00 -1.00  2.00  0.00  0.00
T_1    3.00  0.00 -1.00  1.00 -1.00
T_2    3.00  0.00 -1.00 -1.00  1.00

     the symmetry operations in each class and the name of the first element:

     E        1
          identity                                               
     8C3      5    7    8    6   12    9   10   11
          120 deg rotation - cart. axis [-1,-1,-1]               
     3C2      2    3    4
          180 deg rotation - cart. axis [0,0,1]                  
     6S4     15   16   20   19   23   24
          inv.  90 deg rotation - cart. axis [0,0,-1]            
     6s_d    13   14   17   18   21   22
          inv. 180 deg rotation - cart. axis [1,1,0]             

   Cartesian axes

     site n.     atom                  positions (alat units)
         1           Ga  tau(   1) = (   0.0000000   0.0000000   0.0000000  )
         2           As  tau(   2) = (   0.2500000   0.2500000   0.2500000  )

   Crystallographic axes

     site n.     atom                  positions (cryst. coord.)
         1           Ga  tau(   1) = (  0.0000000  0.0000000  0.0000000  )
         2           As  tau(   2) = ( -0.2500000  0.7500000 -0.2500000  )

     number of k points=   256
                       cart. coord. in units 2pi/alat
        k(    1) = (   0.0000000   0.0000000   0.0000000), wk =   0.0002500
        k(    2) = (  -0.0500000   0.0500000  -0.0500000), wk =   0.0020000
        k(    3) = (  -0.1000000   0.1000000  -0.1000000), wk =   0.0020000
        k(    4) = (  -0.1500000   0.1500000  -0.1500000), wk =   0.0020000
        k(    5) = (  -0.2000000   0.2000000  -0.2000000), wk =   0.0020000
        k(    6) = (  -0.2500000   0.2500000  -0.2500000), wk =   0.0020000
        k(    7) = (  -0.3000000   0.3000000  -0.3000000), wk =   0.0020000
        k(    8) = (  -0.3500000   0.3500000  -0.3500000), wk =   0.0020000
        k(    9) = (  -0.4000000   0.4000000  -0.4000000), wk =   0.0020000
        k(   10) = (  -0.4500000   0.4500000  -0.4500000), wk =   0.0020000
        k(   11) = (   0.5000000  -0.5000000   0.5000000), wk =   0.0010000
        k(   12) = (   0.0000000   0.1000000   0.0000000), wk =   0.0015000
        k(   13) = (  -0.0500000   0.1500000  -0.0500000), wk =   0.0060000
        k(   14) = (  -0.1000000   0.2000000  -0.1000000), wk =   0.0060000
        k(   15) = (  -0.1500000   0.2500000  -0.1500000), wk =   0.0060000
        k(   16) = (  -0.2000000   0.3000000  -0.2000000), wk =   0.0060000
        k(   17) = (  -0.2500000   0.3500000  -0.2500000), wk =   0.0060000
        k(   18) = (  -0.3000000   0.4000000  -0.3000000), wk =   0.0060000
        k(   19) = (  -0.3500000   0.4500000  -0.3500000), wk =   0.0060000
        k(   20) = (  -0.4000000   0.5000000  -0.4000000), wk =   0.0060000
        k(   21) = (   0.5500000  -0.4500000   0.5500000), wk =   0.0060000
        k(   22) = (   0.5000000  -0.4000000   0.5000000), wk =   0.0060000
        k(   23) = (   0.4500000  -0.3500000   0.4500000), wk =   0.0060000
        k(   24) = (   0.4000000  -0.3000000   0.4000000), wk =   0.0060000
        k(   25) = (   0.3500000  -0.2500000   0.3500000), wk =   0.0060000
        k(   26) = (   0.3000000  -0.2000000   0.3000000), wk =   0.0060000
        k(   27) = (   0.2500000  -0.1500000   0.2500000), wk =   0.0060000
        k(   28) = (   0.2000000  -0.1000000   0.2000000), wk =   0.0060000
        k(   29) = (   0.1500000  -0.0500000   0.1500000), wk =   0.0060000
        k(   30) = (   0.1000000  -0.0000000   0.1000000), wk =   0.0030000
        k(   31) = (   0.0000000   0.2000000   0.0000000), wk =   0.0015000
        k(   32) = (  -0.0500000   0.2500000  -0.0500000), wk =   0.0060000
        k(   33) = (  -0.1000000   0.3000000  -0.1000000), wk =   0.0060000
        k(   34) = (  -0.1500000   0.3500000  -0.1500000), wk =   0.0060000
        k(   35) = (  -0.2000000   0.4000000  -0.2000000), wk =   0.0060000
        k(   36) = (  -0.2500000   0.4500000  -0.2500000), wk =   0.0060000
        k(   37) = (  -0.3000000   0.5000000  -0.3000000), wk =   0.0060000
        k(   38) = (  -0.3500000   0.5500000  -0.3500000), wk =   0.0060000
        k(   39) = (   0.6000000  -0.4000000   0.6000000), wk =   0.0060000
        k(   40) = (   0.5500000  -0.3500000   0.5500000), wk =   0.0060000
        k(   41) = (   0.5000000  -0.3000000   0.5000000), wk =   0.0060000
        k(   42) = (   0.4500000  -0.2500000   0.4500000), wk =   0.0060000
        k(   43) = (   0.4000000  -0.2000000   0.4000000), wk =   0.0060000
        k(   44) = (   0.3500000  -0.1500000   0.3500000), wk =   0.0060000
        k(   45) = (   0.3000000  -0.1000000   0.3000000), wk =   0.0060000
        k(   46) = (   0.2500000  -0.0500000   0.2500000), wk =   0.0060000
        k(   47) = (   0.2000000   0.0000000   0.2000000), wk =   0.0030000
        k(   48) = (   0.0000000   0.3000000   0.0000000), wk =   0.0015000
        k(   49) = (  -0.0500000   0.3500000  -0.0500000), wk =   0.0060000
        k(   50) = (  -0.1000000   0.4000000  -0.1000000), wk =   0.0060000
        k(   51) = (  -0.1500000   0.4500000  -0.1500000), wk =   0.0060000
        k(   52) = (  -0.2000000   0.5000000  -0.2000000), wk =   0.0060000
        k(   53) = (  -0.2500000   0.5500000  -0.2500000), wk =   0.0060000
        k(   54) = (  -0.3000000   0.6000000  -0.3000000), wk =   0.0060000
        k(   55) = (   0.6500000  -0.3500000   0.6500000), wk =   0.0060000
        k(   56) = (   0.6000000  -0.3000000   0.6000000), wk =   0.0060000
        k(   57) = (   0.5500000  -0.2500000   0.5500000), wk =   0.0060000
        k(   58) = (   0.5000000  -0.2000000   0.5000000), wk =   0.0060000
        k(   59) = (   0.4500000  -0.1500000   0.4500000), wk =   0.0060000
        k(   60) = (   0.4000000  -0.1000000   0.4000000), wk =   0.0060000
        k(   61) = (   0.3500000  -0.0500000   0.3500000), wk =   0.0060000
        k(   62) = (   0.3000000  -0.0000000   0.3000000), wk =   0.0030000
        k(   63) = (   0.0000000   0.4000000   0.0000000), wk =   0.0015000
        k(   64) = (  -0.0500000   0.4500000  -0.0500000), wk =   0.0060000
        k(   65) = (  -0.1000000   0.5000000  -0.1000000), wk =   0.0060000
        k(   66) = (  -0.1500000   0.5500000  -0.1500000), wk =   0.0060000
        k(   67) = (  -0.2000000   0.6000000  -0.2000000), wk =   0.0060000
        k(   68) = (  -0.2500000   0.6500000  -0.2500000), wk =   0.0060000
        k(   69) = (   0.7000000  -0.3000000   0.7000000), wk =   0.0060000
        k(   70) = (   0.6500000  -0.2500000   0.6500000), wk =   0.0060000
        k(   71) = (   0.6000000  -0.2000000   0.6000000), wk =   0.0060000
        k(   72) = (   0.5500000  -0.1500000   0.5500000), wk =   0.0060000
        k(   73) = (   0.5000000  -0.1000000   0.5000000), wk =   0.0060000
        k(   74) = (   0.4500000  -0.0500000   0.4500000), wk =   0.0060000
        k(   75) = (   0.4000000   0.0000000   0.4000000), wk =   0.0030000
        k(   76) = (   0.0000000   0.5000000   0.0000000), wk =   0.0015000
        k(   77) = (  -0.0500000   0.5500000  -0.0500000), wk =   0.0060000
        k(   78) = (  -0.1000000   0.6000000  -0.1000000), wk =   0.0060000
        k(   79) = (  -0.1500000   0.6500000  -0.1500000), wk =   0.0060000
        k(   80) = (  -0.2000000   0.7000000  -0.2000000), wk =   0.0060000
        k(   81) = (   0.7500000  -0.2500000   0.7500000), wk =   0.0060000
        k(   82) = (   0.7000000  -0.2000000   0.7000000), wk =   0.0060000
        k(   83) = (   0.6500000  -0.1500000   0.6500000), wk =   0.0060000
        k(   84) = (   0.6000000  -0.1000000   0.6000000), wk =   0.0060000
        k(   85) = (   0.5500000  -0.0500000   0.5500000), wk =   0.0060000
        k(   86) = (   0.5000000   0.0000000   0.5000000), wk =   0.0030000
        k(   87) = (   0.0000000   0.6000000   0.0000000), wk =   0.0015000
        k(   88) = (  -0.0500000   0.6500000  -0.0500000), wk =   0.0060000
        k(   89) = (  -0.1000000   0.7000000  -0.1000000), wk =   0.0060000
        k(   90) = (  -0.1500000   0.7500000  -0.1500000), wk =   0.0060000
        k(   91) = (   0.8000000  -0.2000000   0.8000000), wk =   0.0060000
        k(   92) = (   0.7500000  -0.1500000   0.7500000), wk =   0.0060000
        k(   93) = (   0.7000000  -0.1000000   0.7000000), wk =   0.0060000
        k(   94) = (   0.6500000  -0.0500000   0.6500000), wk =   0.0060000
        k(   95) = (   0.6000000  -0.0000000   0.6000000), wk =   0.0030000
        k(   96) = (   0.0000000   0.7000000   0.0000000), wk =   0.0015000
        k(   97) = (  -0.0500000   0.7500000  -0.0500000), wk =   0.0060000
        k(   98) = (  -0.1000000   0.8000000  -0.1000000), wk =   0.0060000
        k(   99) = (   0.8500000  -0.1500000   0.8500000), wk =   0.0060000
        k(  100) = (   0.8000000  -0.1000000   0.8000000), wk =   0.0060000
        k(  101) = (   0.7500000  -0.0500000   0.7500000), wk =   0.0060000
        k(  102) = (   0.7000000   0.0000000   0.7000000), wk =   0.0030000
        k(  103) = (   0.0000000   0.8000000   0.0000000), wk =   0.0015000
        k(  104) = (  -0.0500000   0.8500000  -0.0500000), wk =   0.0060000
        k(  105) = (   0.9000000  -0.1000000   0.9000000), wk =   0.0060000
        k(  106) = (   0.8500000  -0.0500000   0.8500000), wk =   0.0060000
        k(  107) = (   0.8000000   0.0000000   0.8000000), wk =   0.0030000
        k(  108) = (   0.0000000   0.9000000   0.0000000), wk =   0.0015000
        k(  109) = (   0.9500000  -0.0500000   0.9500000), wk =   0.0060000
        k(  110) = (   0.9000000   0.0000000   0.9000000), wk =   0.0030000
        k(  111) = (   0.0000000  -1.0000000   0.0000000), wk =   0.0007500
        k(  112) = (  -0.1000000   0.2000000   0.0000000), wk =   0.0060000
        k(  113) = (  -0.1500000   0.2500000  -0.0500000), wk =   0.0120000
        k(  114) = (  -0.2000000   0.3000000  -0.1000000), wk =   0.0120000
        k(  115) = (  -0.2500000   0.3500000  -0.1500000), wk =   0.0120000
        k(  116) = (  -0.3000000   0.4000000  -0.2000000), wk =   0.0120000
        k(  117) = (  -0.3500000   0.4500000  -0.2500000), wk =   0.0120000
        k(  118) = (  -0.4000000   0.5000000  -0.3000000), wk =   0.0120000
        k(  119) = (   0.5500000  -0.4500000   0.6500000), wk =   0.0120000
        k(  120) = (   0.5000000  -0.4000000   0.6000000), wk =   0.0060000
        k(  121) = (  -0.1000000   0.3000000   0.0000000), wk =   0.0060000
        k(  122) = (  -0.1500000   0.3500000  -0.0500000), wk =   0.0120000
        k(  123) = (  -0.2000000   0.4000000  -0.1000000), wk =   0.0120000
        k(  124) = (  -0.2500000   0.4500000  -0.1500000), wk =   0.0120000
        k(  125) = (  -0.3000000   0.5000000  -0.2000000), wk =   0.0120000
        k(  126) = (  -0.3500000   0.5500000  -0.2500000), wk =   0.0120000
        k(  127) = (   0.6000000  -0.4000000   0.7000000), wk =   0.0120000
        k(  128) = (   0.5500000  -0.3500000   0.6500000), wk =   0.0120000
        k(  129) = (   0.5000000  -0.3000000   0.6000000), wk =   0.0120000
        k(  130) = (   0.4500000  -0.2500000   0.5500000), wk =   0.0120000
        k(  131) = (   0.4000000  -0.2000000   0.5000000), wk =   0.0120000
        k(  132) = (   0.3500000  -0.1500000   0.4500000), wk =   0.0120000
        k(  133) = (   0.3000000  -0.1000000   0.4000000), wk =   0.0120000
        k(  134) = (   0.2500000  -0.0500000   0.3500000), wk =   0.0120000
        k(  135) = (   0.2000000   0.0000000   0.3000000), wk =   0.0060000
        k(  136) = (  -0.1000000   0.4000000   0.0000000), wk =   0.0060000
        k(  137) = (  -0.1500000   0.4500000  -0.0500000), wk =   0.0120000
        k(  138) = (  -0.2000000   0.5000000  -0.1000000), wk =   0.0120000
        k(  139) = (  -0.2500000   0.5500000  -0.1500000), wk =   0.0120000
        k(  140) = (  -0.3000000   0.6000000  -0.2000000), wk =   0.0120000
        k(  141) = (   0.6500000  -0.3500000   0.7500000), wk =   0.0120000
        k(  142) = (   0.6000000  -0.3000000   0.7000000), wk =   0.0120000
        k(  143) = (   0.5500000  -0.2500000   0.6500000), wk =   0.0120000
        k(  144) = (   0.5000000  -0.2000000   0.6000000), wk =   0.0120000
        k(  145) = (   0.4500000  -0.1500000   0.5500000), wk =   0.0120000
        k(  146) = (   0.4000000  -0.1000000   0.5000000), wk =   0.0120000
        k(  147) = (   0.3500000  -0.0500000   0.4500000), wk =   0.0120000
        k(  148) = (   0.3000000   0.0000000   0.4000000), wk =   0.0060000
        k(  149) = (  -0.1000000   0.5000000   0.0000000), wk =   0.0060000
        k(  150) = (  -0.1500000   0.5500000  -0.0500000), wk =   0.0120000
        k(  151) = (  -0.2000000   0.6000000  -0.1000000), wk =   0.0120000
        k(  152) = (  -0.2500000   0.6500000  -0.1500000), wk =   0.0120000
        k(  153) = (   0.7000000  -0.3000000   0.8000000), wk =   0.0120000
        k(  154) = (   0.6500000  -0.2500000   0.7500000), wk =   0.0120000
        k(  155) = (   0.6000000  -0.2000000   0.7000000), wk =   0.0120000
        k(  156) = (   0.5500000  -0.1500000   0.6500000), wk =   0.0120000
        k(  157) = (   0.5000000  -0.1000000   0.6000000), wk =   0.0120000
        k(  158) = (   0.4500000  -0.0500000   0.5500000), wk =   0.0120000
        k(  159) = (   0.4000000   0.0000000   0.5000000), wk =   0.0060000
        k(  160) = (  -0.1000000   0.6000000   0.0000000), wk =   0.0060000
        k(  161) = (  -0.1500000   0.6500000  -0.0500000), wk =   0.0120000
        k(  162) = (  -0.2000000   0.7000000  -0.1000000), wk =   0.0120000
        k(  163) = (   0.7500000  -0.2500000   0.8500000), wk =   0.0120000
        k(  164) = (   0.7000000  -0.2000000   0.8000000), wk =   0.0120000
        k(  165) = (   0.6500000  -0.1500000   0.7500000), wk =   0.0120000
        k(  166) = (   0.6000000  -0.1000000   0.7000000), wk =   0.0120000
        k(  167) = (   0.5500000  -0.0500000   0.6500000), wk =   0.0120000
        k(  168) = (   0.5000000   0.0000000   0.6000000), wk =   0.0060000
        k(  169) = (  -0.1000000   0.7000000  -0.0000000), wk =   0.0060000
        k(  170) = (  -0.1500000   0.7500000  -0.0500000), wk =   0.0120000
        k(  171) = (   0.8000000  -0.2000000   0.9000000), wk =   0.0120000
        k(  172) = (   0.7500000  -0.1500000   0.8500000), wk =   0.0120000
        k(  173) = (   0.7000000  -0.1000000   0.8000000), wk =   0.0120000
        k(  174) = (   0.6500000  -0.0500000   0.7500000), wk =   0.0120000
        k(  175) = (   0.6000000  -0.0000000   0.7000000), wk =   0.0060000
        k(  176) = (  -0.1000000   0.8000000   0.0000000), wk =   0.0060000
        k(  177) = (   0.8500000  -0.1500000   0.9500000), wk =   0.0120000
        k(  178) = (   0.8000000  -0.1000000   0.9000000), wk =   0.0120000
        k(  179) = (   0.7500000  -0.0500000   0.8500000), wk =   0.0120000
        k(  180) = (   0.7000000   0.0000000   0.8000000), wk =   0.0060000
        k(  181) = (   0.9000000  -0.1000000   1.0000000), wk =   0.0060000
        k(  182) = (   0.8500000  -0.0500000   0.9500000), wk =   0.0120000
        k(  183) = (   0.8000000   0.0000000   0.9000000), wk =   0.0060000
        k(  184) = (  -0.1000000  -1.0000000  -0.0000000), wk =   0.0030000
        k(  185) = (  -0.2000000   0.4000000   0.0000000), wk =   0.0060000
        k(  186) = (  -0.2500000   0.4500000  -0.0500000), wk =   0.0120000
        k(  187) = (  -0.3000000   0.5000000  -0.1000000), wk =   0.0120000
        k(  188) = (  -0.3500000   0.5500000  -0.1500000), wk =   0.0120000
        k(  189) = (   0.6000000  -0.4000000   0.8000000), wk =   0.0120000
        k(  190) = (   0.5500000  -0.3500000   0.7500000), wk =   0.0120000
        k(  191) = (   0.5000000  -0.3000000   0.7000000), wk =   0.0060000
        k(  192) = (  -0.2000000   0.5000000   0.0000000), wk =   0.0060000
        k(  193) = (  -0.2500000   0.5500000  -0.0500000), wk =   0.0120000
        k(  194) = (  -0.3000000   0.6000000  -0.1000000), wk =   0.0120000
        k(  195) = (   0.6500000  -0.3500000   0.8500000), wk =   0.0120000
        k(  196) = (   0.6000000  -0.3000000   0.8000000), wk =   0.0120000
        k(  197) = (   0.5500000  -0.2500000   0.7500000), wk =   0.0120000
        k(  198) = (   0.5000000  -0.2000000   0.7000000), wk =   0.0120000
        k(  199) = (   0.4500000  -0.1500000   0.6500000), wk =   0.0120000
        k(  200) = (   0.4000000  -0.1000000   0.6000000), wk =   0.0120000
        k(  201) = (   0.3500000  -0.0500000   0.5500000), wk =   0.0120000
        k(  202) = (   0.3000000  -0.0000000   0.5000000), wk =   0.0060000
        k(  203) = (  -0.2000000   0.6000000   0.0000000), wk =   0.0060000
        k(  204) = (  -0.2500000   0.6500000  -0.0500000), wk =   0.0120000
        k(  205) = (   0.7000000  -0.3000000   0.9000000), wk =   0.0120000
        k(  206) = (   0.6500000  -0.2500000   0.8500000), wk =   0.0120000
        k(  207) = (   0.6000000  -0.2000000   0.8000000), wk =   0.0120000
        k(  208) = (   0.5500000  -0.1500000   0.7500000), wk =   0.0120000
        k(  209) = (   0.5000000  -0.1000000   0.7000000), wk =   0.0120000
        k(  210) = (   0.4500000  -0.0500000   0.6500000), wk =   0.0120000
        k(  211) = (   0.4000000   0.0000000   0.6000000), wk =   0.0060000
        k(  212) = (  -0.2000000   0.7000000  -0.0000000), wk =   0.0060000
        k(  213) = (   0.7500000  -0.2500000   0.9500000), wk =   0.0120000
        k(  214) = (   0.7000000  -0.2000000   0.9000000), wk =   0.0120000
        k(  215) = (   0.6500000  -0.1500000   0.8500000), wk =   0.0120000
        k(  216) = (   0.6000000  -0.1000000   0.8000000), wk =   0.0120000
        k(  217) = (   0.5500000  -0.0500000   0.7500000), wk =   0.0120000
        k(  218) = (   0.5000000  -0.0000000   0.7000000), wk =   0.0060000
        k(  219) = (   0.8000000  -0.2000000   1.0000000), wk =   0.0060000
        k(  220) = (   0.7500000  -0.1500000   0.9500000), wk =   0.0120000
        k(  221) = (   0.7000000  -0.1000000   0.9000000), wk =   0.0120000
        k(  222) = (   0.6500000  -0.0500000   0.8500000), wk =   0.0120000
        k(  223) = (   0.6000000   0.0000000   0.8000000), wk =   0.0060000
        k(  224) = (   0.8000000  -0.1000000   1.0000000), wk =   0.0060000
        k(  225) = (   0.7500000  -0.0500000   0.9500000), wk =   0.0120000
        k(  226) = (   0.7000000   0.0000000   0.9000000), wk =   0.0060000
        k(  227) = (  -0.2000000  -1.0000000   0.0000000), wk =   0.0030000
        k(  228) = (  -0.3000000   0.6000000  -0.0000000), wk =   0.0060000
        k(  229) = (   0.6500000  -0.3500000   0.9500000), wk =   0.0120000
        k(  230) = (   0.6000000  -0.3000000   0.9000000), wk =   0.0120000
        k(  231) = (   0.5500000  -0.2500000   0.8500000), wk =   0.0120000
        k(  232) = (   0.5000000  -0.2000000   0.8000000), wk =   0.0060000
        k(  233) = (   0.7000000  -0.3000000   1.0000000), wk =   0.0060000
        k(  234) = (   0.6500000  -0.2500000   0.9500000), wk =   0.0120000
        k(  235) = (   0.6000000  -0.2000000   0.9000000), wk =   0.0120000
        k(  236) = (   0.5500000  -0.1500000   0.8500000), wk =   0.0120000
        k(  237) = (   0.5000000  -0.1000000   0.8000000), wk =   0.0120000
        k(  238) = (   0.4500000  -0.0500000   0.7500000), wk =   0.0120000
        k(  239) = (   0.4000000   0.0000000   0.7000000), wk =   0.0060000
        k(  240) = (   0.7000000  -0.2000000   1.0000000), wk =   0.0060000
        k(  241) = (   0.6500000  -0.1500000   0.9500000), wk =   0.0120000
        k(  242) = (   0.6000000  -0.1000000   0.9000000), wk =   0.0120000
        k(  243) = (   0.5500000  -0.0500000   0.8500000), wk =   0.0120000
        k(  244) = (   0.5000000   0.0000000   0.8000000), wk =   0.0060000
        k(  245) = (   0.7000000  -0.1000000   1.0000000), wk =   0.0060000
        k(  246) = (   0.6500000  -0.0500000   0.9500000), wk =   0.0120000
        k(  247) = (   0.6000000   0.0000000   0.9000000), wk =   0.0060000
        k(  248) = (  -0.3000000  -1.0000000   0.0000000), wk =   0.0030000
        k(  249) = (   0.6000000  -0.2000000   1.0000000), wk =   0.0060000
        k(  250) = (   0.5500000  -0.1500000   0.9500000), wk =   0.0120000
        k(  251) = (   0.5000000  -0.1000000   0.9000000), wk =   0.0060000
        k(  252) = (   0.6000000  -0.1000000   1.0000000), wk =   0.0060000
        k(  253) = (   0.5500000  -0.0500000   0.9500000), wk =   0.0120000
        k(  254) = (   0.5000000   0.0000000   0.9000000), wk =   0.0060000
        k(  255) = (  -0.4000000  -1.0000000   0.0000000), wk =   0.0030000
        k(  256) = (  -0.5000000  -1.0000000   0.0000000), wk =   0.0015000

                       cryst. coord.
        k(    1) = (   0.0000000   0.0000000   0.0000000), wk =   0.0002500
        k(    2) = (   0.0000000   0.0000000   0.0500000), wk =   0.0020000
        k(    3) = (   0.0000000   0.0000000   0.1000000), wk =   0.0020000
        k(    4) = (   0.0000000   0.0000000   0.1500000), wk =   0.0020000
        k(    5) = (   0.0000000   0.0000000   0.2000000), wk =   0.0020000
        k(    6) = (   0.0000000   0.0000000   0.2500000), wk =   0.0020000
        k(    7) = (   0.0000000   0.0000000   0.3000000), wk =   0.0020000
        k(    8) = (   0.0000000   0.0000000   0.3500000), wk =   0.0020000
        k(    9) = (   0.0000000   0.0000000   0.4000000), wk =   0.0020000
        k(   10) = (   0.0000000   0.0000000   0.4500000), wk =   0.0020000
        k(   11) = (   0.0000000   0.0000000  -0.5000000), wk =   0.0010000
        k(   12) = (   0.0000000   0.0500000   0.0500000), wk =   0.0015000
        k(   13) = (   0.0000000   0.0500000   0.1000000), wk =   0.0060000
        k(   14) = (   0.0000000   0.0500000   0.1500000), wk =   0.0060000
        k(   15) = (   0.0000000   0.0500000   0.2000000), wk =   0.0060000
        k(   16) = (   0.0000000   0.0500000   0.2500000), wk =   0.0060000
        k(   17) = (   0.0000000   0.0500000   0.3000000), wk =   0.0060000
        k(   18) = (   0.0000000   0.0500000   0.3500000), wk =   0.0060000
        k(   19) = (   0.0000000   0.0500000   0.4000000), wk =   0.0060000
        k(   20) = (   0.0000000   0.0500000   0.4500000), wk =   0.0060000
        k(   21) = (   0.0000000   0.0500000  -0.5000000), wk =   0.0060000
        k(   22) = (   0.0000000   0.0500000  -0.4500000), wk =   0.0060000
        k(   23) = (   0.0000000   0.0500000  -0.4000000), wk =   0.0060000
        k(   24) = (   0.0000000   0.0500000  -0.3500000), wk =   0.0060000
        k(   25) = (   0.0000000   0.0500000  -0.3000000), wk =   0.0060000
        k(   26) = (   0.0000000   0.0500000  -0.2500000), wk =   0.0060000
        k(   27) = (   0.0000000   0.0500000  -0.2000000), wk =   0.0060000
        k(   28) = (   0.0000000   0.0500000  -0.1500000), wk =   0.0060000
        k(   29) = (   0.0000000   0.0500000  -0.1000000), wk =   0.0060000
        k(   30) = (   0.0000000   0.0500000  -0.0500000), wk =   0.0030000
        k(   31) = (   0.0000000   0.1000000   0.1000000), wk =   0.0015000
        k(   32) = (   0.0000000   0.1000000   0.1500000), wk =   0.0060000
        k(   33) = (   0.0000000   0.1000000   0.2000000), wk =   0.0060000
        k(   34) = (   0.0000000   0.1000000   0.2500000), wk =   0.0060000
        k(   35) = (   0.0000000   0.1000000   0.3000000), wk =   0.0060000
        k(   36) = (   0.0000000   0.1000000   0.3500000), wk =   0.0060000
        k(   37) = (   0.0000000   0.1000000   0.4000000), wk =   0.0060000
        k(   38) = (   0.0000000   0.1000000   0.4500000), wk =   0.0060000
        k(   39) = (   0.0000000   0.1000000  -0.5000000), wk =   0.0060000
        k(   40) = (   0.0000000   0.1000000  -0.4500000), wk =   0.0060000
        k(   41) = (   0.0000000   0.1000000  -0.4000000), wk =   0.0060000
        k(   42) = (   0.0000000   0.1000000  -0.3500000), wk =   0.0060000
        k(   43) = (   0.0000000   0.1000000  -0.3000000), wk =   0.0060000
        k(   44) = (   0.0000000   0.1000000  -0.2500000), wk =   0.0060000
        k(   45) = (   0.0000000   0.1000000  -0.2000000), wk =   0.0060000
        k(   46) = (   0.0000000   0.1000000  -0.1500000), wk =   0.0060000
        k(   47) = (   0.0000000   0.1000000  -0.1000000), wk =   0.0030000
        k(   48) = (   0.0000000   0.1500000   0.1500000), wk =   0.0015000
        k(   49) = (   0.0000000   0.1500000   0.2000000), wk =   0.0060000
        k(   50) = (   0.0000000   0.1500000   0.2500000), wk =   0.0060000
        k(   51) = (   0.0000000   0.1500000   0.3000000), wk =   0.0060000
        k(   52) = (   0.0000000   0.1500000   0.3500000), wk =   0.0060000
        k(   53) = (   0.0000000   0.1500000   0.4000000), wk =   0.0060000
        k(   54) = (   0.0000000   0.1500000   0.4500000), wk =   0.0060000
        k(   55) = (   0.0000000   0.1500000  -0.5000000), wk =   0.0060000
        k(   56) = (   0.0000000   0.1500000  -0.4500000), wk =   0.0060000
        k(   57) = (   0.0000000   0.1500000  -0.4000000), wk =   0.0060000
        k(   58) = (   0.0000000   0.1500000  -0.3500000), wk =   0.0060000
        k(   59) = (   0.0000000   0.1500000  -0.3000000), wk =   0.0060000
        k(   60) = (   0.0000000   0.1500000  -0.2500000), wk =   0.0060000
        k(   61) = (   0.0000000   0.1500000  -0.2000000), wk =   0.0060000
        k(   62) = (   0.0000000   0.1500000  -0.1500000), wk =   0.0030000
        k(   63) = (   0.0000000   0.2000000   0.2000000), wk =   0.0015000
        k(   64) = (   0.0000000   0.2000000   0.2500000), wk =   0.0060000
        k(   65) = (   0.0000000   0.2000000   0.3000000), wk =   0.0060000
        k(   66) = (   0.0000000   0.2000000   0.3500000), wk =   0.0060000
        k(   67) = (   0.0000000   0.2000000   0.4000000), wk =   0.0060000
        k(   68) = (   0.0000000   0.2000000   0.4500000), wk =   0.0060000
        k(   69) = (   0.0000000   0.2000000  -0.5000000), wk =   0.0060000
        k(   70) = (   0.0000000   0.2000000  -0.4500000), wk =   0.0060000
        k(   71) = (   0.0000000   0.2000000  -0.4000000), wk =   0.0060000
        k(   72) = (   0.0000000   0.2000000  -0.3500000), wk =   0.0060000
        k(   73) = (   0.0000000   0.2000000  -0.3000000), wk =   0.0060000
        k(   74) = (   0.0000000   0.2000000  -0.2500000), wk =   0.0060000
        k(   75) = (   0.0000000   0.2000000  -0.2000000), wk =   0.0030000
        k(   76) = (   0.0000000   0.2500000   0.2500000), wk =   0.0015000
        k(   77) = (   0.0000000   0.2500000   0.3000000), wk =   0.0060000
        k(   78) = (   0.0000000   0.2500000   0.3500000), wk =   0.0060000
        k(   79) = (   0.0000000   0.2500000   0.4000000), wk =   0.0060000
        k(   80) = (   0.0000000   0.2500000   0.4500000), wk =   0.0060000
        k(   81) = (   0.0000000   0.2500000  -0.5000000), wk =   0.0060000
        k(   82) = (   0.0000000   0.2500000  -0.4500000), wk =   0.0060000
        k(   83) = (   0.0000000   0.2500000  -0.4000000), wk =   0.0060000
        k(   84) = (   0.0000000   0.2500000  -0.3500000), wk =   0.0060000
        k(   85) = (   0.0000000   0.2500000  -0.3000000), wk =   0.0060000
        k(   86) = (   0.0000000   0.2500000  -0.2500000), wk =   0.0030000
        k(   87) = (   0.0000000   0.3000000   0.3000000), wk =   0.0015000
        k(   88) = (   0.0000000   0.3000000   0.3500000), wk =   0.0060000
        k(   89) = (   0.0000000   0.3000000   0.4000000), wk =   0.0060000
        k(   90) = (   0.0000000   0.3000000   0.4500000), wk =   0.0060000
        k(   91) = (   0.0000000   0.3000000  -0.5000000), wk =   0.0060000
        k(   92) = (   0.0000000   0.3000000  -0.4500000), wk =   0.0060000
        k(   93) = (   0.0000000   0.3000000  -0.4000000), wk =   0.0060000
        k(   94) = (   0.0000000   0.3000000  -0.3500000), wk =   0.0060000
        k(   95) = (   0.0000000   0.3000000  -0.3000000), wk =   0.0030000
        k(   96) = (   0.0000000   0.3500000   0.3500000), wk =   0.0015000
        k(   97) = (   0.0000000   0.3500000   0.4000000), wk =   0.0060000
        k(   98) = (   0.0000000   0.3500000   0.4500000), wk =   0.0060000
        k(   99) = (   0.0000000   0.3500000  -0.5000000), wk =   0.0060000
        k(  100) = (   0.0000000   0.3500000  -0.4500000), wk =   0.0060000
        k(  101) = (   0.0000000   0.3500000  -0.4000000), wk =   0.0060000
        k(  102) = (   0.0000000   0.3500000  -0.3500000), wk =   0.0030000
        k(  103) = (   0.0000000   0.4000000   0.4000000), wk =   0.0015000
        k(  104) = (   0.0000000   0.4000000   0.4500000), wk =   0.0060000
        k(  105) = (   0.0000000   0.4000000  -0.5000000), wk =   0.0060000
        k(  106) = (   0.0000000   0.4000000  -0.4500000), wk =   0.0060000
        k(  107) = (   0.0000000   0.4000000  -0.4000000), wk =   0.0030000
        k(  108) = (   0.0000000   0.4500000   0.4500000), wk =   0.0015000
        k(  109) = (   0.0000000   0.4500000  -0.5000000), wk =   0.0060000
        k(  110) = (   0.0000000   0.4500000  -0.4500000), wk =   0.0030000
        k(  111) = (   0.0000000  -0.5000000  -0.5000000), wk =   0.0007500
        k(  112) = (   0.0500000   0.1000000   0.1500000), wk =   0.0060000
        k(  113) = (   0.0500000   0.1000000   0.2000000), wk =   0.0120000
        k(  114) = (   0.0500000   0.1000000   0.2500000), wk =   0.0120000
        k(  115) = (   0.0500000   0.1000000   0.3000000), wk =   0.0120000
        k(  116) = (   0.0500000   0.1000000   0.3500000), wk =   0.0120000
        k(  117) = (   0.0500000   0.1000000   0.4000000), wk =   0.0120000
        k(  118) = (   0.0500000   0.1000000   0.4500000), wk =   0.0120000
        k(  119) = (   0.0500000   0.1000000  -0.5000000), wk =   0.0120000
        k(  120) = (   0.0500000   0.1000000  -0.4500000), wk =   0.0060000
        k(  121) = (   0.0500000   0.1500000   0.2000000), wk =   0.0060000
        k(  122) = (   0.0500000   0.1500000   0.2500000), wk =   0.0120000
        k(  123) = (   0.0500000   0.1500000   0.3000000), wk =   0.0120000
        k(  124) = (   0.0500000   0.1500000   0.3500000), wk =   0.0120000
        k(  125) = (   0.0500000   0.1500000   0.4000000), wk =   0.0120000
        k(  126) = (   0.0500000   0.1500000   0.4500000), wk =   0.0120000
        k(  127) = (   0.0500000   0.1500000  -0.5000000), wk =   0.0120000
        k(  128) = (   0.0500000   0.1500000  -0.4500000), wk =   0.0120000
        k(  129) = (   0.0500000   0.1500000  -0.4000000), wk =   0.0120000
        k(  130) = (   0.0500000   0.1500000  -0.3500000), wk =   0.0120000
        k(  131) = (   0.0500000   0.1500000  -0.3000000), wk =   0.0120000
        k(  132) = (   0.0500000   0.1500000  -0.2500000), wk =   0.0120000
        k(  133) = (   0.0500000   0.1500000  -0.2000000), wk =   0.0120000
        k(  134) = (   0.0500000   0.1500000  -0.1500000), wk =   0.0120000
        k(  135) = (   0.0500000   0.1500000  -0.1000000), wk =   0.0060000
        k(  136) = (   0.0500000   0.2000000   0.2500000), wk =   0.0060000
        k(  137) = (   0.0500000   0.2000000   0.3000000), wk =   0.0120000
        k(  138) = (   0.0500000   0.2000000   0.3500000), wk =   0.0120000
        k(  139) = (   0.0500000   0.2000000   0.4000000), wk =   0.0120000
        k(  140) = (   0.0500000   0.2000000   0.4500000), wk =   0.0120000
        k(  141) = (   0.0500000   0.2000000  -0.5000000), wk =   0.0120000
        k(  142) = (   0.0500000   0.2000000  -0.4500000), wk =   0.0120000
        k(  143) = (   0.0500000   0.2000000  -0.4000000), wk =   0.0120000
        k(  144) = (   0.0500000   0.2000000  -0.3500000), wk =   0.0120000
        k(  145) = (   0.0500000   0.2000000  -0.3000000), wk =   0.0120000
        k(  146) = (   0.0500000   0.2000000  -0.2500000), wk =   0.0120000
        k(  147) = (   0.0500000   0.2000000  -0.2000000), wk =   0.0120000
        k(  148) = (   0.0500000   0.2000000  -0.1500000), wk =   0.0060000
        k(  149) = (   0.0500000   0.2500000   0.3000000), wk =   0.0060000
        k(  150) = (   0.0500000   0.2500000   0.3500000), wk =   0.0120000
        k(  151) = (   0.0500000   0.2500000   0.4000000), wk =   0.0120000
        k(  152) = (   0.0500000   0.2500000   0.4500000), wk =   0.0120000
        k(  153) = (   0.0500000   0.2500000  -0.5000000), wk =   0.0120000
        k(  154) = (   0.0500000   0.2500000  -0.4500000), wk =   0.0120000
        k(  155) = (   0.0500000   0.2500000  -0.4000000), wk =   0.0120000
        k(  156) = (   0.0500000   0.2500000  -0.3500000), wk =   0.0120000
        k(  157) = (   0.0500000   0.2500000  -0.3000000), wk =   0.0120000
        k(  158) = (   0.0500000   0.2500000  -0.2500000), wk =   0.0120000
        k(  159) = (   0.0500000   0.2500000  -0.2000000), wk =   0.0060000
        k(  160) = (   0.0500000   0.3000000   0.3500000), wk =   0.0060000
        k(  161) = (   0.0500000   0.3000000   0.4000000), wk =   0.0120000
        k(  162) = (   0.0500000   0.3000000   0.4500000), wk =   0.0120000
        k(  163) = (   0.0500000   0.3000000  -0.5000000), wk =   0.0120000
        k(  164) = (   0.0500000   0.3000000  -0.4500000), wk =   0.0120000
        k(  165) = (   0.0500000   0.3000000  -0.4000000), wk =   0.0120000
        k(  166) = (   0.0500000   0.3000000  -0.3500000), wk =   0.0120000
        k(  167) = (   0.0500000   0.3000000  -0.3000000), wk =   0.0120000
        k(  168) = (   0.0500000   0.3000000  -0.2500000), wk =   0.0060000
        k(  169) = (   0.0500000   0.3500000   0.4000000), wk =   0.0060000
        k(  170) = (   0.0500000   0.3500000   0.4500000), wk =   0.0120000
        k(  171) = (   0.0500000   0.3500000  -0.5000000), wk =   0.0120000
        k(  172) = (   0.0500000   0.3500000  -0.4500000), wk =   0.0120000
        k(  173) = (   0.0500000   0.3500000  -0.4000000), wk =   0.0120000
        k(  174) = (   0.0500000   0.3500000  -0.3500000), wk =   0.0120000
        k(  175) = (   0.0500000   0.3500000  -0.3000000), wk =   0.0060000
        k(  176) = (   0.0500000   0.4000000   0.4500000), wk =   0.0060000
        k(  177) = (   0.0500000   0.4000000  -0.5000000), wk =   0.0120000
        k(  178) = (   0.0500000   0.4000000  -0.4500000), wk =   0.0120000
        k(  179) = (   0.0500000   0.4000000  -0.4000000), wk =   0.0120000
        k(  180) = (   0.0500000   0.4000000  -0.3500000), wk =   0.0060000
        k(  181) = (   0.0500000   0.4500000  -0.5000000), wk =   0.0060000
        k(  182) = (   0.0500000   0.4500000  -0.4500000), wk =   0.0120000
        k(  183) = (   0.0500000   0.4500000  -0.4000000), wk =   0.0060000
        k(  184) = (   0.0500000  -0.5000000  -0.4500000), wk =   0.0030000
        k(  185) = (   0.1000000   0.2000000   0.3000000), wk =   0.0060000
        k(  186) = (   0.1000000   0.2000000   0.3500000), wk =   0.0120000
        k(  187) = (   0.1000000   0.2000000   0.4000000), wk =   0.0120000
        k(  188) = (   0.1000000   0.2000000   0.4500000), wk =   0.0120000
        k(  189) = (   0.1000000   0.2000000  -0.5000000), wk =   0.0120000
        k(  190) = (   0.1000000   0.2000000  -0.4500000), wk =   0.0120000
        k(  191) = (   0.1000000   0.2000000  -0.4000000), wk =   0.0060000
        k(  192) = (   0.1000000   0.2500000   0.3500000), wk =   0.0060000
        k(  193) = (   0.1000000   0.2500000   0.4000000), wk =   0.0120000
        k(  194) = (   0.1000000   0.2500000   0.4500000), wk =   0.0120000
        k(  195) = (   0.1000000   0.2500000  -0.5000000), wk =   0.0120000
        k(  196) = (   0.1000000   0.2500000  -0.4500000), wk =   0.0120000
        k(  197) = (   0.1000000   0.2500000  -0.4000000), wk =   0.0120000
        k(  198) = (   0.1000000   0.2500000  -0.3500000), wk =   0.0120000
        k(  199) = (   0.1000000   0.2500000  -0.3000000), wk =   0.0120000
        k(  200) = (   0.1000000   0.2500000  -0.2500000), wk =   0.0120000
        k(  201) = (   0.1000000   0.2500000  -0.2000000), wk =   0.0120000
        k(  202) = (   0.1000000   0.2500000  -0.1500000), wk =   0.0060000
        k(  203) = (   0.1000000   0.3000000   0.4000000), wk =   0.0060000
        k(  204) = (   0.1000000   0.3000000   0.4500000), wk =   0.0120000
        k(  205) = (   0.1000000   0.3000000  -0.5000000), wk =   0.0120000
        k(  206) = (   0.1000000   0.3000000  -0.4500000), wk =   0.0120000
        k(  207) = (   0.1000000   0.3000000  -0.4000000), wk =   0.0120000
        k(  208) = (   0.1000000   0.3000000  -0.3500000), wk =   0.0120000
        k(  209) = (   0.1000000   0.3000000  -0.3000000), wk =   0.0120000
        k(  210) = (   0.1000000   0.3000000  -0.2500000), wk =   0.0120000
        k(  211) = (   0.1000000   0.3000000  -0.2000000), wk =   0.0060000
        k(  212) = (   0.1000000   0.3500000   0.4500000), wk =   0.0060000
        k(  213) = (   0.1000000   0.3500000  -0.5000000), wk =   0.0120000
        k(  214) = (   0.1000000   0.3500000  -0.4500000), wk =   0.0120000
        k(  215) = (   0.1000000   0.3500000  -0.4000000), wk =   0.0120000
        k(  216) = (   0.1000000   0.3500000  -0.3500000), wk =   0.0120000
        k(  217) = (   0.1000000   0.3500000  -0.3000000), wk =   0.0120000
        k(  218) = (   0.1000000   0.3500000  -0.2500000), wk =   0.0060000
        k(  219) = (   0.1000000   0.4000000  -0.5000000), wk =   0.0060000
        k(  220) = (   0.1000000   0.4000000  -0.4500000), wk =   0.0120000
        k(  221) = (   0.1000000   0.4000000  -0.4000000), wk =   0.0120000
        k(  222) = (   0.1000000   0.4000000  -0.3500000), wk =   0.0120000
        k(  223) = (   0.1000000   0.4000000  -0.3000000), wk =   0.0060000
        k(  224) = (   0.1000000   0.4500000  -0.4500000), wk =   0.0060000
        k(  225) = (   0.1000000   0.4500000  -0.4000000), wk =   0.0120000
        k(  226) = (   0.1000000   0.4500000  -0.3500000), wk =   0.0060000
        k(  227) = (   0.1000000  -0.5000000  -0.4000000), wk =   0.0030000
        k(  228) = (   0.1500000   0.3000000   0.4500000), wk =   0.0060000
        k(  229) = (   0.1500000   0.3000000  -0.5000000), wk =   0.0120000
        k(  230) = (   0.1500000   0.3000000  -0.4500000), wk =   0.0120000
        k(  231) = (   0.1500000   0.3000000  -0.4000000), wk =   0.0120000
        k(  232) = (   0.1500000   0.3000000  -0.3500000), wk =   0.0060000
        k(  233) = (   0.1500000   0.3500000  -0.5000000), wk =   0.0060000
        k(  234) = (   0.1500000   0.3500000  -0.4500000), wk =   0.0120000
        k(  235) = (   0.1500000   0.3500000  -0.4000000), wk =   0.0120000
        k(  236) = (   0.1500000   0.3500000  -0.3500000), wk =   0.0120000
        k(  237) = (   0.1500000   0.3500000  -0.3000000), wk =   0.0120000
        k(  238) = (   0.1500000   0.3500000  -0.2500000), wk =   0.0120000
        k(  239) = (   0.1500000   0.3500000  -0.2000000), wk =   0.0060000
        k(  240) = (   0.1500000   0.4000000  -0.4500000), wk =   0.0060000
        k(  241) = (   0.1500000   0.4000000  -0.4000000), wk =   0.0120000
        k(  242) = (   0.1500000   0.4000000  -0.3500000), wk =   0.0120000
        k(  243) = (   0.1500000   0.4000000  -0.3000000), wk =   0.0120000
        k(  244) = (   0.1500000   0.4000000  -0.2500000), wk =   0.0060000
        k(  245) = (   0.1500000   0.4500000  -0.4000000), wk =   0.0060000
        k(  246) = (   0.1500000   0.4500000  -0.3500000), wk =   0.0120000
        k(  247) = (   0.1500000   0.4500000  -0.3000000), wk =   0.0060000
        k(  248) = (   0.1500000  -0.5000000  -0.3500000), wk =   0.0030000
        k(  249) = (   0.2000000   0.4000000  -0.4000000), wk =   0.0060000
        k(  250) = (   0.2000000   0.4000000  -0.3500000), wk =   0.0120000
        k(  251) = (   0.2000000   0.4000000  -0.3000000), wk =   0.0060000
        k(  252) = (   0.2000000   0.4500000  -0.3500000), wk =   0.0060000
        k(  253) = (   0.2000000   0.4500000  -0.3000000), wk =   0.0120000
        k(  254) = (   0.2000000   0.4500000  -0.2500000), wk =   0.0060000
        k(  255) = (   0.2000000  -0.5000000  -0.3000000), wk =   0.0030000
        k(  256) = (   0.2500000  -0.5000000  -0.2500000), wk =   0.0015000

     Dense  grid:    28763 G-vectors     FFT dimensions: (  45,  45,  45)

     Smooth grid:    10081 G-vectors     FFT dimensions: (  32,  32,  32)

     Dynamical RAM for                 wfc:       0.25 MB

     Dynamical RAM for     wfc (w. buffer):       0.25 MB

     Dynamical RAM for           str. fact:       0.88 MB

     Dynamical RAM for           local pot:       0.00 MB

     Dynamical RAM for          nlocal pot:       0.50 MB

     Dynamical RAM for                qrad:       2.87 MB

     Dynamical RAM for          rho,v,vnew:       3.40 MB

     Dynamical RAM for           G-vectors:       1.72 MB

     Dynamical RAM for          h,s,v(r/c):       0.03 MB

     Dynamical RAM for          <psi|beta>:       0.01 MB

     Dynamical RAM for                 psi:       0.50 MB

     Dynamical RAM for                hpsi:       0.50 MB

     Dynamical RAM for                spsi:       0.50 MB

     Dynamical RAM for      wfcinit/wfcrot:       0.51 MB

     Dynamical RAM for           addusdens:      82.07 MB

     Estimated static dynamical RAM per process >      14.42 MB

     Estimated max dynamical RAM per process >      96.49 MB

     The potential is recalculated from file :
     ./SCRATCH/gallium arsenide.save/charge-density

     Starting wfcs are   13 randomized atomic wfcs

     Band Structure Calculation
     Davidson diagonalization with overlap

     Computing kpt #:     1  of   256
     total cpu time spent up to now is        0.8 secs

     Computing kpt #:     2  of   256
     total cpu time spent up to now is        1.0 secs

     Computing kpt #:     3  of   256
     total cpu time spent up to now is        1.1 secs

     Computing kpt #:     4  of   256
     total cpu time spent up to now is        1.3 secs

     Computing kpt #:     5  of   256
     total cpu time spent up to now is        1.4 secs

     Computing kpt #:     6  of   256
     total cpu time spent up to now is        1.6 secs

     Computing kpt #:     7  of   256
     total cpu time spent up to now is        1.8 secs

     Computing kpt #:     8  of   256
     total cpu time spent up to now is        1.9 secs

     Computing kpt #:     9  of   256
     total cpu time spent up to now is        2.1 secs

     Computing kpt #:    10  of   256
     total cpu time spent up to now is        2.3 secs

     Computing kpt #:    11  of   256
     total cpu time spent up to now is        2.4 secs

     Computing kpt #:    12  of   256
     total cpu time spent up to now is        2.6 secs

     Computing kpt #:    13  of   256
     total cpu time spent up to now is        2.7 secs

     Computing kpt #:    14  of   256
     total cpu time spent up to now is        2.9 secs

     Computing kpt #:    15  of   256
     total cpu time spent up to now is        3.0 secs

     Computing kpt #:    16  of   256
     total cpu time spent up to now is        3.2 secs

     Computing kpt #:    17  of   256
     total cpu time spent up to now is        3.4 secs

     Computing kpt #:    18  of   256
     total cpu time spent up to now is        3.5 secs

     Computing kpt #:    19  of   256
     total cpu time spent up to now is        3.7 secs

     Computing kpt #:    20  of   256
     total cpu time spent up to now is        3.9 secs

     Computing kpt #:    21  of   256
     total cpu time spent up to now is        4.1 secs

     Computing kpt #:    22  of   256
     total cpu time spent up to now is        4.2 secs

     Computing kpt #:    23  of   256
     total cpu time spent up to now is        4.4 secs

     Computing kpt #:    24  of   256
     total cpu time spent up to now is        4.6 secs

     Computing kpt #:    25  of   256
     total cpu time spent up to now is        4.8 secs

     Computing kpt #:    26  of   256
     total cpu time spent up to now is        4.9 secs

     Computing kpt #:    27  of   256
     total cpu time spent up to now is        5.1 secs

     Computing kpt #:    28  of   256
     total cpu time spent up to now is        5.2 secs

     Computing kpt #:    29  of   256
     total cpu time spent up to now is        5.4 secs

     Computing kpt #:    30  of   256
     total cpu time spent up to now is        5.5 secs

     Computing kpt #:    31  of   256
     total cpu time spent up to now is        5.7 secs

     Computing kpt #:    32  of   256
     total cpu time spent up to now is        5.8 secs

     Computing kpt #:    33  of   256
     total cpu time spent up to now is        6.0 secs

     Computing kpt #:    34  of   256
     total cpu time spent up to now is        6.1 secs

     Computing kpt #:    35  of   256
     total cpu time spent up to now is        6.3 secs

     Computing kpt #:    36  of   256
     total cpu time spent up to now is        6.5 secs

     Computing kpt #:    37  of   256
     total cpu time spent up to now is        6.7 secs

     Computing kpt #:    38  of   256
     total cpu time spent up to now is        6.8 secs

     Computing kpt #:    39  of   256
     total cpu time spent up to now is        7.0 secs

     Computing kpt #:    40  of   256
     total cpu time spent up to now is        7.2 secs

     Computing kpt #:    41  of   256
     total cpu time spent up to now is        7.3 secs

     Computing kpt #:    42  of   256
     total cpu time spent up to now is        7.5 secs

     Computing kpt #:    43  of   256
     total cpu time spent up to now is        7.7 secs

     Computing kpt #:    44  of   256
     total cpu time spent up to now is        7.8 secs

     Computing kpt #:    45  of   256
     total cpu time spent up to now is        8.0 secs

     Computing kpt #:    46  of   256
     total cpu time spent up to now is        8.2 secs

     Computing kpt #:    47  of   256
     total cpu time spent up to now is        8.3 secs

     Computing kpt #:    48  of   256
     total cpu time spent up to now is        8.5 secs

     Computing kpt #:    49  of   256
     total cpu time spent up to now is        8.6 secs

     Computing kpt #:    50  of   256
     total cpu time spent up to now is        8.8 secs

     Computing kpt #:    51  of   256
     total cpu time spent up to now is        9.0 secs

     Computing kpt #:    52  of   256
     total cpu time spent up to now is        9.1 secs

     Computing kpt #:    53  of   256
     total cpu time spent up to now is        9.3 secs

     Computing kpt #:    54  of   256
     total cpu time spent up to now is        9.5 secs

     Computing kpt #:    55  of   256
     total cpu time spent up to now is        9.7 secs

     Computing kpt #:    56  of   256
     total cpu time spent up to now is        9.8 secs

     Computing kpt #:    57  of   256
     total cpu time spent up to now is       10.0 secs

     Computing kpt #:    58  of   256
     total cpu time spent up to now is       10.2 secs

     Computing kpt #:    59  of   256
     total cpu time spent up to now is       10.3 secs

     Computing kpt #:    60  of   256
     total cpu time spent up to now is       10.5 secs

     Computing kpt #:    61  of   256
     total cpu time spent up to now is       10.6 secs

     Computing kpt #:    62  of   256
     total cpu time spent up to now is       10.8 secs

     Computing kpt #:    63  of   256
     total cpu time spent up to now is       10.9 secs

     Computing kpt #:    64  of   256
     total cpu time spent up to now is       11.1 secs

     Computing kpt #:    65  of   256
     total cpu time spent up to now is       11.3 secs

     Computing kpt #:    66  of   256
     total cpu time spent up to now is       11.4 secs

     Computing kpt #:    67  of   256
     total cpu time spent up to now is       11.6 secs

     Computing kpt #:    68  of   256
     total cpu time spent up to now is       11.8 secs

     Computing kpt #:    69  of   256
     total cpu time spent up to now is       11.9 secs

     Computing kpt #:    70  of   256
     total cpu time spent up to now is       12.1 secs

     Computing kpt #:    71  of   256
     total cpu time spent up to now is       12.3 secs

     Computing kpt #:    72  of   256
     total cpu time spent up to now is       12.5 secs

     Computing kpt #:    73  of   256
     total cpu time spent up to now is       12.6 secs

     Computing kpt #:    74  of   256
     total cpu time spent up to now is       12.8 secs

     Computing kpt #:    75  of   256
     total cpu time spent up to now is       12.9 secs

     Computing kpt #:    76  of   256
     total cpu time spent up to now is       13.1 secs

     Computing kpt #:    77  of   256
     total cpu time spent up to now is       13.3 secs

     Computing kpt #:    78  of   256
     total cpu time spent up to now is       13.4 secs

     Computing kpt #:    79  of   256
     total cpu time spent up to now is       13.6 secs

     Computing kpt #:    80  of   256
     total cpu time spent up to now is       13.8 secs

     Computing kpt #:    81  of   256
     total cpu time spent up to now is       14.0 secs

     Computing kpt #:    82  of   256
     total cpu time spent up to now is       14.1 secs

     Computing kpt #:    83  of   256
     total cpu time spent up to now is       14.3 secs

     Computing kpt #:    84  of   256
     total cpu time spent up to now is       14.5 secs

     Computing kpt #:    85  of   256
     total cpu time spent up to now is       14.7 secs

     Computing kpt #:    86  of   256
     total cpu time spent up to now is       14.8 secs

     Computing kpt #:    87  of   256
     total cpu time spent up to now is       15.0 secs

     Computing kpt #:    88  of   256
     total cpu time spent up to now is       15.2 secs

     Computing kpt #:    89  of   256
     total cpu time spent up to now is       15.3 secs

     Computing kpt #:    90  of   256
     total cpu time spent up to now is       15.5 secs

     Computing kpt #:    91  of   256
     total cpu time spent up to now is       15.7 secs

     Computing kpt #:    92  of   256
     total cpu time spent up to now is       15.8 secs

     Computing kpt #:    93  of   256
     total cpu time spent up to now is       16.0 secs

     Computing kpt #:    94  of   256
     total cpu time spent up to now is       16.2 secs

     Computing kpt #:    95  of   256
     total cpu time spent up to now is       16.4 secs

     Computing kpt #:    96  of   256
     total cpu time spent up to now is       16.5 secs

     Computing kpt #:    97  of   256
     total cpu time spent up to now is       16.7 secs

     Computing kpt #:    98  of   256
     total cpu time spent up to now is       16.9 secs

     Computing kpt #:    99  of   256
     total cpu time spent up to now is       17.1 secs

     Computing kpt #:   100  of   256
     total cpu time spent up to now is       17.2 secs

     Computing kpt #:   101  of   256
     total cpu time spent up to now is       17.4 secs

     Computing kpt #:   102  of   256
     total cpu time spent up to now is       17.6 secs

     Computing kpt #:   103  of   256
     total cpu time spent up to now is       17.8 secs

     Computing kpt #:   104  of   256
     total cpu time spent up to now is       18.0 secs

     Computing kpt #:   105  of   256
     total cpu time spent up to now is       18.1 secs

     Computing kpt #:   106  of   256
     total cpu time spent up to now is       18.3 secs

     Computing kpt #:   107  of   256
     total cpu time spent up to now is       18.5 secs

     Computing kpt #:   108  of   256
     total cpu time spent up to now is       18.7 secs

     Computing kpt #:   109  of   256
     total cpu time spent up to now is       18.9 secs

     Computing kpt #:   110  of   256
     total cpu time spent up to now is       19.0 secs

     Computing kpt #:   111  of   256
     total cpu time spent up to now is       19.2 secs

     Computing kpt #:   112  of   256
     total cpu time spent up to now is       19.4 secs

     Computing kpt #:   113  of   256
     total cpu time spent up to now is       19.5 secs

     Computing kpt #:   114  of   256
     total cpu time spent up to now is       19.7 secs

     Computing kpt #:   115  of   256
     total cpu time spent up to now is       19.9 secs

     Computing kpt #:   116  of   256
     total cpu time spent up to now is       20.0 secs

     Computing kpt #:   117  of   256
     total cpu time spent up to now is       20.2 secs

     Computing kpt #:   118  of   256
     total cpu time spent up to now is       20.4 secs

     Computing kpt #:   119  of   256
     total cpu time spent up to now is       20.6 secs

     Computing kpt #:   120  of   256
     total cpu time spent up to now is       20.7 secs

     Computing kpt #:   121  of   256
     total cpu time spent up to now is       20.9 secs

     Computing kpt #:   122  of   256
     total cpu time spent up to now is       21.1 secs

     Computing kpt #:   123  of   256
     total cpu time spent up to now is       21.2 secs

     Computing kpt #:   124  of   256
     total cpu time spent up to now is       21.4 secs

     Computing kpt #:   125  of   256
     total cpu time spent up to now is       21.6 secs

     Computing kpt #:   126  of   256
     total cpu time spent up to now is       21.8 secs

     Computing kpt #:   127  of   256
     total cpu time spent up to now is       21.9 secs

     Computing kpt #:   128  of   256
     total cpu time spent up to now is       22.1 secs

     Computing kpt #:   129  of   256
     total cpu time spent up to now is       22.3 secs

     Computing kpt #:   130  of   256
     total cpu time spent up to now is       22.5 secs

     Computing kpt #:   131  of   256
     total cpu time spent up to now is       22.6 secs

     Computing kpt #:   132  of   256
     total cpu time spent up to now is       22.8 secs

     Computing kpt #:   133  of   256
     total cpu time spent up to now is       23.0 secs

     Computing kpt #:   134  of   256
     total cpu time spent up to now is       23.2 secs

     Computing kpt #:   135  of   256
     total cpu time spent up to now is       23.3 secs

     Computing kpt #:   136  of   256
     total cpu time spent up to now is       23.5 secs

     Computing kpt #:   137  of   256
     total cpu time spent up to now is       23.7 secs

     Computing kpt #:   138  of   256
     total cpu time spent up to now is       23.9 secs

     Computing kpt #:   139  of   256
     total cpu time spent up to now is       24.0 secs

     Computing kpt #:   140  of   256
     total cpu time spent up to now is       24.2 secs

     Computing kpt #:   141  of   256
     total cpu time spent up to now is       24.4 secs

     Computing kpt #:   142  of   256
     total cpu time spent up to now is       24.6 secs

     Computing kpt #:   143  of   256
     total cpu time spent up to now is       24.7 secs

     Computing kpt #:   144  of   256
     total cpu time spent up to now is       24.9 secs

     Computing kpt #:   145  of   256
     total cpu time spent up to now is       25.1 secs

     Computing kpt #:   146  of   256
     total cpu time spent up to now is       25.3 secs

     Computing kpt #:   147  of   256
     total cpu time spent up to now is       25.5 secs

     Computing kpt #:   148  of   256
     total cpu time spent up to now is       25.6 secs

     Computing kpt #:   149  of   256
     total cpu time spent up to now is       25.8 secs

     Computing kpt #:   150  of   256
     total cpu time spent up to now is       26.0 secs

     Computing kpt #:   151  of   256
     total cpu time spent up to now is       26.2 secs

     Computing kpt #:   152  of   256
     total cpu time spent up to now is       26.3 secs

     Computing kpt #:   153  of   256
     total cpu time spent up to now is       26.5 secs

     Computing kpt #:   154  of   256
     total cpu time spent up to now is       26.7 secs

     Computing kpt #:   155  of   256
     total cpu time spent up to now is       26.9 secs

     Computing kpt #:   156  of   256
     total cpu time spent up to now is       27.1 secs

     Computing kpt #:   157  of   256
     total cpu time spent up to now is       27.2 secs

     Computing kpt #:   158  of   256
     total cpu time spent up to now is       27.4 secs

     Computing kpt #:   159  of   256
     total cpu time spent up to now is       27.6 secs

     Computing kpt #:   160  of   256
     total cpu time spent up to now is       27.8 secs

     Computing kpt #:   161  of   256
     total cpu time spent up to now is       27.9 secs

     Computing kpt #:   162  of   256
     total cpu time spent up to now is       28.1 secs

     Computing kpt #:   163  of   256
     total cpu time spent up to now is       28.3 secs

     Computing kpt #:   164  of   256
     total cpu time spent up to now is       28.5 secs

     Computing kpt #:   165  of   256
     total cpu time spent up to now is       28.6 secs

     Computing kpt #:   166  of   256
     total cpu time spent up to now is       28.8 secs

     Computing kpt #:   167  of   256
     total cpu time spent up to now is       29.0 secs

     Computing kpt #:   168  of   256
     total cpu time spent up to now is       29.2 secs

     Computing kpt #:   169  of   256
     total cpu time spent up to now is       29.4 secs

     Computing kpt #:   170  of   256
     total cpu time spent up to now is       29.5 secs

     Computing kpt #:   171  of   256
     total cpu time spent up to now is       29.7 secs

     Computing kpt #:   172  of   256
     total cpu time spent up to now is       29.9 secs

     Computing kpt #:   173  of   256
     total cpu time spent up to now is       30.1 secs

     Computing kpt #:   174  of   256
     total cpu time spent up to now is       30.3 secs

     Computing kpt #:   175  of   256
     total cpu time spent up to now is       30.5 secs

     Computing kpt #:   176  of   256
     total cpu time spent up to now is       30.6 secs

     Computing kpt #:   177  of   256
     total cpu time spent up to now is       30.8 secs

     Computing kpt #:   178  of   256
     total cpu time spent up to now is       31.0 secs

     Computing kpt #:   179  of   256
     total cpu time spent up to now is       31.2 secs

     Computing kpt #:   180  of   256
     total cpu time spent up to now is       31.4 secs

     Computing kpt #:   181  of   256
     total cpu time spent up to now is       31.5 secs

     Computing kpt #:   182  of   256
     total cpu time spent up to now is       31.7 secs

     Computing kpt #:   183  of   256
     total cpu time spent up to now is       31.9 secs

     Computing kpt #:   184  of   256
     total cpu time spent up to now is       32.1 secs

     Computing kpt #:   185  of   256
     total cpu time spent up to now is       32.2 secs

     Computing kpt #:   186  of   256
     total cpu time spent up to now is       32.4 secs

     Computing kpt #:   187  of   256
     total cpu time spent up to now is       32.6 secs

     Computing kpt #:   188  of   256
     total cpu time spent up to now is       32.8 secs

     Computing kpt #:   189  of   256
     total cpu time spent up to now is       32.9 secs

     Computing kpt #:   190  of   256
     total cpu time spent up to now is       33.1 secs

     Computing kpt #:   191  of   256
     total cpu time spent up to now is       33.3 secs

     Computing kpt #:   192  of   256
     total cpu time spent up to now is       33.4 secs

     Computing kpt #:   193  of   256
     total cpu time spent up to now is       33.6 secs

     Computing kpt #:   194  of   256
     total cpu time spent up to now is       33.8 secs

     Computing kpt #:   195  of   256
     total cpu time spent up to now is       34.0 secs

     Computing kpt #:   196  of   256
     total cpu time spent up to now is       34.1 secs

     Computing kpt #:   197  of   256
     total cpu time spent up to now is       34.4 secs

     Computing kpt #:   198  of   256
     total cpu time spent up to now is       34.5 secs

     Computing kpt #:   199  of   256
     total cpu time spent up to now is       34.7 secs

     Computing kpt #:   200  of   256
     total cpu time spent up to now is       34.9 secs

     Computing kpt #:   201  of   256
     total cpu time spent up to now is       35.1 secs

     Computing kpt #:   202  of   256
     total cpu time spent up to now is       35.3 secs

     Computing kpt #:   203  of   256
     total cpu time spent up to now is       35.5 secs

     Computing kpt #:   204  of   256
     total cpu time spent up to now is       35.7 secs

     Computing kpt #:   205  of   256
     total cpu time spent up to now is       35.9 secs

     Computing kpt #:   206  of   256
     total cpu time spent up to now is       36.1 secs

     Computing kpt #:   207  of   256
     total cpu time spent up to now is       36.3 secs

     Computing kpt #:   208  of   256
     total cpu time spent up to now is       36.6 secs

     Computing kpt #:   209  of   256
     total cpu time spent up to now is       36.8 secs

     Computing kpt #:   210  of   256
     total cpu time spent up to now is       37.0 secs

     Computing kpt #:   211  of   256
     total cpu time spent up to now is       37.2 secs

     Computing kpt #:   212  of   256
     total cpu time spent up to now is       37.3 secs

     Computing kpt #:   213  of   256
     total cpu time spent up to now is       37.5 secs

     Computing kpt #:   214  of   256
     total cpu time spent up to now is       37.7 secs

     Computing kpt #:   215  of   256
     total cpu time spent up to now is       37.9 secs

     Computing kpt #:   216  of   256
     total cpu time spent up to now is       38.1 secs

     Computing kpt #:   217  of   256
     total cpu time spent up to now is       38.3 secs

     Computing kpt #:   218  of   256
     total cpu time spent up to now is       38.5 secs

     Computing kpt #:   219  of   256
     total cpu time spent up to now is       38.7 secs

     Computing kpt #:   220  of   256
     total cpu time spent up to now is       38.9 secs

     Computing kpt #:   221  of   256
     total cpu time spent up to now is       39.1 secs

     Computing kpt #:   222  of   256
     total cpu time spent up to now is       39.3 secs

     Computing kpt #:   223  of   256
     total cpu time spent up to now is       39.4 secs

     Computing kpt #:   224  of   256
     total cpu time spent up to now is       39.6 secs

     Computing kpt #:   225  of   256
     total cpu time spent up to now is       39.8 secs

     Computing kpt #:   226  of   256
     total cpu time spent up to now is       40.0 secs

     Computing kpt #:   227  of   256
     total cpu time spent up to now is       40.2 secs

     Computing kpt #:   228  of   256
     total cpu time spent up to now is       40.3 secs

     Computing kpt #:   229  of   256
     total cpu time spent up to now is       40.5 secs

     Computing kpt #:   230  of   256
     total cpu time spent up to now is       40.7 secs

     Computing kpt #:   231  of   256
     total cpu time spent up to now is       40.9 secs

     Computing kpt #:   232  of   256
     total cpu time spent up to now is       41.1 secs

     Computing kpt #:   233  of   256
     total cpu time spent up to now is       41.2 secs

     Computing kpt #:   234  of   256
     total cpu time spent up to now is       41.4 secs

     Computing kpt #:   235  of   256
     total cpu time spent up to now is       41.6 secs

     Computing kpt #:   236  of   256
     total cpu time spent up to now is       41.8 secs

     Computing kpt #:   237  of   256
     total cpu time spent up to now is       42.0 secs

     Computing kpt #:   238  of   256
     total cpu time spent up to now is       42.2 secs

     Computing kpt #:   239  of   256
     total cpu time spent up to now is       42.3 secs

     Computing kpt #:   240  of   256
     total cpu time spent up to now is       42.5 secs

     Computing kpt #:   241  of   256
     total cpu time spent up to now is       42.7 secs

     Computing kpt #:   242  of   256
     total cpu time spent up to now is       42.9 secs

     Computing kpt #:   243  of   256
     total cpu time spent up to now is       43.0 secs

     Computing kpt #:   244  of   256
     total cpu time spent up to now is       43.2 secs

     Computing kpt #:   245  of   256
     total cpu time spent up to now is       43.4 secs

     Computing kpt #:   246  of   256
     total cpu time spent up to now is       43.6 secs

     Computing kpt #:   247  of   256
     total cpu time spent up to now is       43.7 secs

     Computing kpt #:   248  of   256
     total cpu time spent up to now is       43.9 secs

     Computing kpt #:   249  of   256
     total cpu time spent up to now is       44.1 secs

     Computing kpt #:   250  of   256
     total cpu time spent up to now is       44.3 secs

     Computing kpt #:   251  of   256
     total cpu time spent up to now is       44.4 secs

     Computing kpt #:   252  of   256
     total cpu time spent up to now is       44.6 secs

     Computing kpt #:   253  of   256
     total cpu time spent up to now is       44.8 secs

     Computing kpt #:   254  of   256
     total cpu time spent up to now is       45.0 secs

     Computing kpt #:   255  of   256
     total cpu time spent up to now is       45.1 secs

     Computing kpt #:   256  of   256
     total cpu time spent up to now is       45.3 secs

     ethr =  5.56E-11,  avg # of iterations = 25.2

     total cpu time spent up to now is       45.3 secs

     End of band structure calculation

          k = 0.0000 0.0000 0.0000 (  1243 PWs)   bands (ev):

    -8.1526  -8.1526  -8.1526  -8.0678  -8.0678  -6.1954   6.7870   6.7870
     6.7870   7.2811  10.4662  10.4662  10.4662

     occupation numbers 
     1.0000   1.0000   1.0000   1.0000   1.0000   1.0000   1.0000   1.0000
     1.0000   0.0000   0.0000   0.0000   0.0000

          k =-0.0500 0.0500-0.0500 (  1249 PWs)   bands (ev):

    -8.1553  -8.1519  -8.1519  -8.0679  -8.0679  -6.1647   6.1301   6.7417
     6.7417   7.8026  10.5092  10.5331  10.5331

     occupation numbers 
[...]
     1.0000   1.0000   1.0000   1.0000   1.0000   1.0000   1.0000   1.0000
     1.0000   0.0000   0.0000   0.0000   0.0000

          k = 0.6500-0.2500 0.8500 (  1265 PWs)   bands (ev):

    -8.2507  -8.1220  -8.1129  -8.0789  -8.0604  -4.0132   0.3370   3.2895
     4.4515   9.5255  11.3841  12.2966  14.5137

     occupation numbers 
     1.0000   1.0000   1.0000   1.0000   1.0000   1.0000   1.0000   1.0000
     1.0000   0.0000   0.0000   0.0000   0.0000

          k = 0.6000-0.2000 0.8000 (  1257 PWs)   bands (ev):

    -8.2514  -8.1228  -8.1125  -8.0768  -8.0618  -3.8786   0.1431   3.1110
     4.4618   9.5928  11.5438  12.7991  14.4244

     occupation numbers 
     1.0000   1.0000   1.0000   1.0000   1.0000   1.0000   1.0000   1.0000
     1.0000   0.0000   0.0000   0.0000   0.0000

          k = 0.5500-0.1500 0.7500 (  1263 PWs)   bands (ev):

    -8.2506  -8.1239  -8.1132  -8.0750  -8.0633  -3.8652   0.1289   3.0057
     4.5434   9.6964  11.5117  13.2338  14.4783

     occupation numbers 
     1.0000   1.0000   1.0000   1.0000   1.0000   1.0000   1.0000   1.0000
     1.0000   0.0000   0.0000   0.0000   0.0000

          k = 0.5000-0.1000 0.7000 (  1267 PWs)   bands (ev):

    -8.2481  -8.1249  -8.1149  -8.0741  -8.0641  -3.9768   0.2933   2.9907
     4.6870   9.8297  11.4724  12.8814  14.5241

     occupation numbers 
     1.0000   1.0000   1.0000   1.0000   1.0000   1.0000   1.0000   1.0000
     1.0000   0.0000   0.0000   0.0000   0.0000

          k = 0.4500-0.0500 0.6500 (  1260 PWs)   bands (ev):

    -8.2441  -8.1260  -8.1174  -8.0740  -8.0639  -4.1791   0.5861   3.0884
     4.8790   9.9705  11.4258  12.2441  14.2565

     occupation numbers 
     1.0000   1.0000   1.0000   1.0000   1.0000   1.0000   1.0000   1.0000
     1.0000   0.0000   0.0000   0.0000   0.0000

          k = 0.4000 0.0000 0.6000 (  1275 PWs)   bands (ev):

    -8.2390  -8.1274  -8.1208  -8.0747  -8.0633  -4.4265   0.9373   3.3243
     5.0997  10.0632  11.1728  11.9077  13.8723

     occupation numbers 
     1.0000   1.0000   1.0000   1.0000   1.0000   1.0000   1.0000   1.0000
     1.0000   0.0000   0.0000   0.0000   0.0000

          k =-0.2000 0.7000-0.0000 (  1264 PWs)   bands (ev):

    -8.2505  -8.1163  -8.1122  -8.0854  -8.0572  -4.3487   0.9095   3.8936
     4.3853   9.0003   9.7608  13.2674  15.1246

     occupation numbers 
     1.0000   1.0000   1.0000   1.0000   1.0000   1.0000   1.0000   1.0000
     1.0000   0.0000   0.0000   0.0000   0.0000

          k = 0.7500-0.2500 0.9500 (  1262 PWs)   bands (ev):

    -8.2541  -8.1162  -8.1099  -8.0847  -8.0576  -4.1108   0.5661   3.5795
     4.2361   9.2223  10.0640  13.0659  15.3634

     occupation numbers 
     1.0000   1.0000   1.0000   1.0000   1.0000   1.0000   1.0000   1.0000
     1.0000   0.0000   0.0000   0.0000   0.0000

          k = 0.7000-0.2000 0.9000 (  1264 PWs)   bands (ev):

    -8.2560  -8.1172  -8.1086  -8.0831  -8.0587  -3.9008   0.2855   3.2672
     4.1702   9.3112  10.7089  12.8812  15.2848

     occupation numbers 
     1.0000   1.0000   1.0000   1.0000   1.0000   1.0000   1.0000   1.0000
     1.0000   0.0000   0.0000   0.0000   0.0000

          k = 0.6500-0.1500 0.8500 (  1261 PWs)   bands (ev):

    -8.2560  -8.1187  -8.1083  -8.0809  -8.0603  -3.7581   0.1098   3.0012
     4.1888   9.3932  11.4721  12.7709  14.9164

     occupation numbers 
     1.0000   1.0000   1.0000   1.0000   1.0000   1.0000   1.0000   1.0000
     1.0000   0.0000   0.0000   0.0000   0.0000

          k = 0.6000-0.1000 0.8000 (  1258 PWs)   bands (ev):

    -8.2547  -8.1206  -8.1090  -8.0784  -8.0621  -3.7192   0.0718   2.8199
     4.2816   9.5110  12.0503  12.8911  14.3034

     occupation numbers 
     1.0000   1.0000   1.0000   1.0000   1.0000   1.0000   1.0000   1.0000
     1.0000   0.0000   0.0000   0.0000   0.0000

          k = 0.5500-0.0500 0.7500 (  1264 PWs)   bands (ev):

    -8.2521  -8.1225  -8.1108  -8.0763  -8.0638  -3.7945   0.1699   2.7551
     4.4372   9.6662  12.1808  12.8661  14.2349

     occupation numbers 
     1.0000   1.0000   1.0000   1.0000   1.0000   1.0000   1.0000   1.0000
     1.0000   0.0000   0.0000   0.0000   0.0000

          k = 0.5000-0.0000 0.7000 (  1262 PWs)   bands (ev):

    -8.2485  -8.1243  -8.1136  -8.0748  -8.0644  -3.9607   0.3608   2.8372
     4.6425   9.8395  12.0764  12.2789  14.7616

     occupation numbers 
     1.0000   1.0000   1.0000   1.0000   1.0000   1.0000   1.0000   1.0000
     1.0000   0.0000   0.0000   0.0000   0.0000

          k = 0.8000-0.2000 1.0000 (  1269 PWs)   bands (ev):

    -8.2601  -8.1108  -8.1065  -8.0882  -8.0561  -3.9725   0.3735   3.7230
     4.0480   8.8769   9.4323  14.0451  15.9458

     occupation numbers 
     1.0000   1.0000   1.0000   1.0000   1.0000   1.0000   1.0000   1.0000
     1.0000   0.0000   0.0000   0.0000   0.0000

          k = 0.7500-0.1500 0.9500 (  1263 PWs)   bands (ev):

    -8.2613  -8.1120  -8.1052  -8.0868  -8.0569  -3.7842   0.1477   3.4237
     3.9434   9.0951   9.8435  13.8420  15.8810

     occupation numbers 
     1.0000   1.0000   1.0000   1.0000   1.0000   1.0000   1.0000   1.0000
     1.0000   0.0000   0.0000   0.0000   0.0000

          k = 0.7000-0.1000 0.9000 (  1262 PWs)   bands (ev):

    -8.2608  -8.1141  -8.1051  -8.0846  -8.0585  -3.6536   0.0130   3.0964
     3.9609   9.1953  10.5886  13.6537  15.2386

     occupation numbers 
     1.0000   1.0000   1.0000   1.0000   1.0000   1.0000   1.0000   1.0000
     1.0000   0.0000   0.0000   0.0000   0.0000

          k = 0.6500-0.0500 0.8500 (  1263 PWs)   bands (ev):

    -8.2588  -8.1169  -8.1058  -8.0819  -8.0604  -3.6100  -0.0142   2.8394
     4.0594   9.3162  11.4468  13.4962  14.3725

     occupation numbers 
     1.0000   1.0000   1.0000   1.0000   1.0000   1.0000   1.0000   1.0000
     1.0000   0.0000   0.0000   0.0000   0.0000

          k = 0.6000 0.0000 0.8000 (  1263 PWs)   bands (ev):

    -8.2558  -8.1198  -8.1077  -8.0791  -8.0623  -3.6624   0.0526   2.7113
     4.2224   9.4776  12.2243  13.1835  13.8264

     occupation numbers 
     1.0000   1.0000   1.0000   1.0000   1.0000   1.0000   1.0000   1.0000
     1.0000   0.0000   0.0000   0.0000   0.0000

          k = 0.8000-0.1000 1.0000 (  1272 PWs)   bands (ev):

    -8.2660  -8.1073  -8.1032  -8.0898  -8.0554  -3.6785  -0.0176   3.6459
     3.8147   8.8344   9.1850  14.8694  16.2172

     occupation numbers 
     1.0000   1.0000   1.0000   1.0000   1.0000   1.0000   1.0000   1.0000
     1.0000   0.0000   0.0000   0.0000   0.0000

          k = 0.7500-0.0500 0.9500 (  1267 PWs)   bands (ev):

    -8.2651  -8.1097  -8.1031  -8.0877  -8.0566  -3.5825  -0.0997   3.3482
     3.7905   9.0323   9.7219  14.6627  15.4741

     occupation numbers 
     1.0000   1.0000   1.0000   1.0000   1.0000   1.0000   1.0000   1.0000
     1.0000   0.0000   0.0000   0.0000   0.0000

          k = 0.7000 0.0000 0.9000 (  1266 PWs)   bands (ev):

    -8.2625  -8.1131  -8.1039  -8.0851  -8.0585  -3.5593  -0.0888   3.0366
     3.8915   9.1551  10.5446  14.3739  14.6054

     occupation numbers 
     1.0000   1.0000   1.0000   1.0000   1.0000   1.0000   1.0000   1.0000
     1.0000   0.0000   0.0000   0.0000   0.0000

          k =-0.2000-1.0000 0.0000 (  1264 PWs)   bands (ev):

    -8.2680  -8.1058  -8.1021  -8.0901  -8.0551  -3.5624  -0.1664   3.6474
     3.7089   8.8384   9.0820  15.6033  15.7390

     occupation numbers 
     1.0000   1.0000   1.0000   1.0000   1.0000   1.0000   1.0000   1.0000
     1.0000   0.0000   0.0000   0.0000   0.0000

          k =-0.3000 0.6000-0.0000 (  1269 PWs)   bands (ev):

    -8.2377  -8.1259  -8.1204  -8.0784  -8.0607  -4.6029   1.2423   3.7261
     4.9616  10.0030  10.4692  11.8717  14.0507

     occupation numbers 
     1.0000   1.0000   1.0000   1.0000   1.0000   1.0000   1.0000   1.0000
     1.0000   0.0000   0.0000   0.0000   0.0000

          k = 0.6500-0.3500 0.9500 (  1266 PWs)   bands (ev):

    -8.2432  -8.1250  -8.1173  -8.0778  -8.0611  -4.3444   0.8353   3.4299
     4.7612  10.1443  10.8083  11.7842  14.3760

     occupation numbers 
     1.0000   1.0000   1.0000   1.0000   1.0000   1.0000   1.0000   1.0000
     1.0000   0.0000   0.0000   0.0000   0.0000

          k = 0.6000-0.3000 0.9000 (  1259 PWs)   bands (ev):

    -8.2471  -8.1245  -8.1149  -8.0765  -8.0619  -4.1070   0.4710   3.2374
     4.5898  10.1532  11.0029  12.1319  14.5102

     occupation numbers 
     1.0000   1.0000   1.0000   1.0000   1.0000   1.0000   1.0000   1.0000
     1.0000   0.0000   0.0000   0.0000   0.0000

          k = 0.5500-0.2500 0.8500 (  1265 PWs)   bands (ev):

    -8.2496  -8.1244  -8.1135  -8.0755  -8.0627  -3.9332   0.2117   3.1316
     4.4759  10.1536  10.9716  12.8000  14.5441

     occupation numbers 
     1.0000   1.0000   1.0000   1.0000   1.0000   1.0000   1.0000   1.0000
     1.0000   0.0000   0.0000   0.0000   0.0000

          k = 0.5000-0.2000 0.8000 (  1262 PWs)   bands (ev):

    -8.2504  -8.1244  -8.1130  -8.0750  -8.0631  -3.8682   0.1165   3.0981
     4.4361  10.1547  10.9440  13.2139  14.5379

     occupation numbers 
     1.0000   1.0000   1.0000   1.0000   1.0000   1.0000   1.0000   1.0000
     1.0000   0.0000   0.0000   0.0000   0.0000

          k = 0.7000-0.3000 1.0000 (  1262 PWs)   bands (ev):

    -8.2485  -8.1209  -8.1132  -8.0814  -8.0592  -4.2412   0.7448   3.4926
     4.4339   9.8428  10.3791  12.2011  15.0474

     occupation numbers 
     1.0000   1.0000   1.0000   1.0000   1.0000   1.0000   1.0000   1.0000
     1.0000   0.0000   0.0000   0.0000   0.0000

          k = 0.6500-0.2500 0.9500 (  1262 PWs)   bands (ev):

    -8.2517  -8.1209  -8.1108  -8.0805  -8.0602  -4.0116   0.4393   3.2360
     4.2479  10.0534  10.8342  12.0243  15.2516

     occupation numbers 
     1.0000   1.0000   1.0000   1.0000   1.0000   1.0000   1.0000   1.0000
     1.0000   0.0000   0.0000   0.0000   0.0000

          k = 0.6000-0.2000 0.9000 (  1264 PWs)   bands (ev):

    -8.2534  -8.1215  -8.1094  -8.0791  -8.0615  -3.8310   0.2066   3.0473
     4.1339  10.1314  11.3358  12.1100  14.9165

     occupation numbers 
     1.0000   1.0000   1.0000   1.0000   1.0000   1.0000   1.0000   1.0000
     1.0000   0.0000   0.0000   0.0000   0.0000

          k = 0.5500-0.1500 0.8500 (  1262 PWs)   bands (ev):

    -8.2537  -8.1221  -8.1090  -8.0778  -8.0625  -3.7409   0.0948   2.9280
     4.1109  10.2203  11.3914  12.6991  14.2187

     occupation numbers 
     1.0000   1.0000   1.0000   1.0000   1.0000   1.0000   1.0000   1.0000
     1.0000   0.0000   0.0000   0.0000   0.0000

          k = 0.5000-0.1000 0.8000 (  1258 PWs)   bands (ev):

    -8.2528  -8.1228  -8.1095  -8.0769  -8.0631  -3.7671   0.1312   2.8885
     4.1787  10.3308  11.3301  12.7496  14.1823

     occupation numbers 
     1.0000   1.0000   1.0000   1.0000   1.0000   1.0000   1.0000   1.0000
     1.0000   0.0000   0.0000   0.0000   0.0000

          k = 0.4500-0.0500 0.7500 (  1260 PWs)   bands (ev):

    -8.2507  -8.1234  -8.1112  -8.0769  -8.0628  -3.9010   0.3002   2.9468
     4.3249  10.4405  11.2694  12.0695  14.8941

     occupation numbers 
     1.0000   1.0000   1.0000   1.0000   1.0000   1.0000   1.0000   1.0000
     1.0000   0.0000   0.0000   0.0000   0.0000

          k = 0.4000 0.0000 0.7000 (  1263 PWs)   bands (ev):

    -8.2475  -8.1241  -8.1138  -8.0774  -8.0620  -4.1068   0.5524   3.1232
     4.5291  10.4733  11.0183  11.6884  14.9330

     occupation numbers 
     1.0000   1.0000   1.0000   1.0000   1.0000   1.0000   1.0000   1.0000
     1.0000   0.0000   0.0000   0.0000   0.0000

          k = 0.7000-0.2000 1.0000 (  1261 PWs)   bands (ev):

    -8.2566  -8.1164  -8.1076  -8.0839  -8.0584  -3.9004   0.3163   3.3576
     3.9894   9.7192  10.1533  12.8505  15.7124

     occupation numbers 
     1.0000   1.0000   1.0000   1.0000   1.0000   1.0000   1.0000   1.0000
     1.0000   0.0000   0.0000   0.0000   0.0000

          k = 0.6500-0.1500 0.9500 (  1261 PWs)   bands (ev):

    -8.2576  -8.1175  -8.1062  -8.0824  -8.0597  -3.7297   0.1285   3.1371
     3.8414   9.9397  10.7223  12.6555  15.1252

     occupation numbers 
     1.0000   1.0000   1.0000   1.0000   1.0000   1.0000   1.0000   1.0000
     1.0000   0.0000   0.0000   0.0000   0.0000

          k = 0.6000-0.1000 0.9000 (  1263 PWs)   bands (ev):

    -8.2573  -8.1191  -8.1059  -8.0806  -8.0614  -3.6333   0.0328   2.9379
     3.8239  10.0513  11.4862  12.5447  14.2125

     occupation numbers 
     1.0000   1.0000   1.0000   1.0000   1.0000   1.0000   1.0000   1.0000
     1.0000   0.0000   0.0000   0.0000   0.0000

          k = 0.5500-0.0500 0.8500 (  1257 PWs)   bands (ev):

    -8.2558  -8.1207  -8.1065  -8.0788  -8.0625  -3.6350   0.0440   2.8128
     3.9155  10.1874  11.9579  12.5975  13.5469

     occupation numbers 
     1.0000   1.0000   1.0000   1.0000   1.0000   1.0000   1.0000   1.0000
     1.0000   0.0000   0.0000   0.0000   0.0000

          k = 0.5000 0.0000 0.8000 (  1256 PWs)   bands (ev):

    -8.2536  -8.1221  -8.1083  -8.0776  -8.0631  -3.7327   0.1461   2.8066
     4.0904  10.3430  11.9086  12.1394  14.0770

     occupation numbers 
     1.0000   1.0000   1.0000   1.0000   1.0000   1.0000   1.0000   1.0000
     1.0000   0.0000   0.0000   0.0000   0.0000

          k = 0.7000-0.1000 1.0000 (  1261 PWs)   bands (ev):

    -8.2618  -8.1133  -8.1042  -8.0853  -8.0580  -3.6417   0.0084   3.3283
     3.6579   9.6611   9.9630  13.6285  15.2998

     occupation numbers 
     1.0000   1.0000   1.0000   1.0000   1.0000   1.0000   1.0000   1.0000
     1.0000   0.0000   0.0000   0.0000   0.0000

          k = 0.6500-0.0500 0.9500 (  1263 PWs)   bands (ev):

    -8.2607  -8.1156  -8.1041  -8.0833  -8.0597  -3.5618  -0.0497   3.1168
     3.5991   9.8758  10.6402  13.4278  14.3335

     occupation numbers 
     1.0000   1.0000   1.0000   1.0000   1.0000   1.0000   1.0000   1.0000
     1.0000   0.0000   0.0000   0.0000   0.0000

          k = 0.6000 0.0000 0.9000 (  1263 PWs)   bands (ev):

    -8.2586  -8.1182  -8.1048  -8.0811  -8.0614  -3.5605  -0.0288   2.9032
     3.7133  10.0188  11.4921  13.1215  13.5428

     occupation numbers 
     1.0000   1.0000   1.0000   1.0000   1.0000   1.0000   1.0000   1.0000
     1.0000   0.0000   0.0000   0.0000   0.0000

          k =-0.3000-1.0000 0.0000 (  1268 PWs)   bands (ev):

    -8.2635  -8.1123  -8.1033  -8.0858  -8.0580  -3.5420  -0.1071   3.3736
     3.4902   9.6509   9.8862  14.3540  14.6005

     occupation numbers 
     1.0000   1.0000   1.0000   1.0000   1.0000   1.0000   1.0000   1.0000
     1.0000   0.0000   0.0000   0.0000   0.0000

          k = 0.6000-0.2000 1.0000 (  1277 PWs)   bands (ev):

    -8.2542  -8.1210  -8.1084  -8.0800  -8.0615  -3.8160   0.2376   3.0337
     4.0013  10.6372  10.9573  11.8527  15.0151

     occupation numbers 
     1.0000   1.0000   1.0000   1.0000   1.0000   1.0000   1.0000   1.0000
     1.0000   0.0000   0.0000   0.0000   0.0000

          k = 0.5500-0.1500 0.9500 (  1257 PWs)   bands (ev):

    -8.2554  -8.1210  -8.1067  -8.0791  -8.0622  -3.6766   0.0934   2.9205
     3.8297  10.7825  11.3363  12.0223  14.1007

     occupation numbers 
     1.0000   1.0000   1.0000   1.0000   1.0000   1.0000   1.0000   1.0000
     1.0000   0.0000   0.0000   0.0000   0.0000

          k = 0.5000-0.1000 0.9000 (  1256 PWs)   bands (ev):

    -8.2558  -8.1210  -8.1062  -8.0788  -8.0626  -3.6255   0.0402   2.8851
     3.7682  10.8066  11.3812  12.4876  13.4715

     occupation numbers 
     1.0000   1.0000   1.0000   1.0000   1.0000   1.0000   1.0000   1.0000
     1.0000   0.0000   0.0000   0.0000   0.0000

          k = 0.6000-0.1000 1.0000 (  1255 PWs)   bands (ev):

    -8.2581  -8.1184  -8.1048  -8.0812  -8.0610  -3.6043   0.0226   3.0651
     3.5734  10.6299  10.8596  12.4608  14.1793

     occupation numbers 
     1.0000   1.0000   1.0000   1.0000   1.0000   1.0000   1.0000   1.0000
     1.0000   0.0000   0.0000   0.0000   0.0000

          k = 0.5500-0.0500 0.9500 (  1252 PWs)   bands (ev):

    -8.2578  -8.1194  -8.1045  -8.0801  -8.0619  -3.5489  -0.0171   2.9897
     3.4823  10.8290  11.5089  12.3540  13.2579

     occupation numbers 
     1.0000   1.0000   1.0000   1.0000   1.0000   1.0000   1.0000   1.0000
     1.0000   0.0000   0.0000   0.0000   0.0000

          k = 0.5000 0.0000 0.9000 (  1250 PWs)   bands (ev):

    -8.2568  -8.1203  -8.1050  -8.0794  -8.0624  -3.5754   0.0115   2.9136
     3.5935  10.9322  11.7277  12.1109  13.2193

     occupation numbers 
     1.0000   1.0000   1.0000   1.0000   1.0000   1.0000   1.0000   1.0000
     1.0000   0.0000   0.0000   0.0000   0.0000

          k =-0.4000-1.0000 0.0000 (  1258 PWs)   bands (ev):

    -8.2595  -8.1175  -8.1038  -8.0817  -8.0610  -3.5253  -0.0554   3.1695
     3.3325  10.6238  10.8089  13.1015  13.4611

     occupation numbers 
     1.0000   1.0000   1.0000   1.0000   1.0000   1.0000   1.0000   1.0000
     1.0000   0.0000   0.0000   0.0000   0.0000

          k =-0.5000-1.0000 0.0000 (  1256 PWs)   bands (ev):

    -8.2579  -8.1196  -8.1040  -8.0799  -8.0623  -3.5189  -0.0346   3.0945
     3.2759  11.4372  11.4466  12.1934  12.7493

     occupation numbers 
     1.0000   1.0000   1.0000   1.0000   1.0000   1.0000   1.0000   1.0000
     1.0000   0.0000   0.0000   0.0000   0.0000

     highest occupied, lowest unoccupied level (ev):     6.7870    7.2811

     Writing all to output data dir ./SCRATCH/gallium arsenide.save/

     init_run     :      0.47s CPU      0.57s WALL (       1 calls)
     electrons    :     43.75s CPU     44.59s WALL (       1 calls)

     Called by init_run:
     wfcinit      :      0.00s CPU      0.00s WALL (       1 calls)
     wfcinit:atom :      0.09s CPU      0.07s WALL (     256 calls)
     wfcinit:wfcr :      2.06s CPU      2.08s WALL (     256 calls)
     potinit      :      0.02s CPU      0.02s WALL (       1 calls)
     hinit0       :      0.36s CPU      0.37s WALL (       1 calls)

     Called by electrons:
     c_bands      :     43.75s CPU     44.58s WALL (       1 calls)
     v_of_rho     :      0.02s CPU      0.01s WALL (       1 calls)
     v_h          :      0.00s CPU      0.00s WALL (       1 calls)
     v_xc         :      0.02s CPU      0.00s WALL (       1 calls)
     newd         :      0.06s CPU      0.14s WALL (       1 calls)

     Called by c_bands:
     init_us_2    :      0.06s CPU      0.07s WALL (     256 calls)
     init_us_2:cp :      0.06s CPU      0.07s WALL (     256 calls)
     cegterg      :     41.27s CPU     41.92s WALL (     480 calls)

     Called by sum_band:

     Called by *egterg:
     cdiaghg      :      1.14s CPU      0.95s WALL (    6713 calls)
     cegterg:over :      2.95s CPU      3.26s WALL (    6457 calls)
     cegterg:upda :      1.47s CPU      1.40s WALL (    6457 calls)
     cegterg:last :      3.66s CPU      3.83s WALL (    4121 calls)
     h_psi        :     31.33s CPU     32.05s WALL (    7193 calls)
     s_psi        :      1.83s CPU      1.53s WALL (    7193 calls)
     g_psi        :      0.20s CPU      0.19s WALL (    6457 calls)

     Called by h_psi:
     h_psi:calbec :      2.09s CPU      2.11s WALL (    7193 calls)
     vloc_psi     :     27.70s CPU     28.25s WALL (    7193 calls)
     add_vuspsi   :      1.47s CPU      1.54s WALL (    7193 calls)

     General routines
     calbec       :      2.06s CPU      2.08s WALL (    7193 calls)
     fft          :      0.00s CPU      0.01s WALL (       6 calls)
     ffts         :      0.00s CPU      0.00s WALL (       1 calls)
     fftw         :     23.64s CPU     24.49s WALL (  118322 calls)
     interpolate  :      0.00s CPU      0.00s WALL (       1 calls)
     davcio       :      0.00s CPU      0.11s WALL (     512 calls)


     PWSCF        :     44.36s CPU     45.51s WALL


   This run was terminated on:  19: 2:20  11Jun2024            

=------------------------------------------------------------------------------=
   JOB DONE.
=------------------------------------------------------------------------------=
