
     Program PWSCF v.7.2 starts on 11Jun2024 at 13:20:43 

     This program is part of the open-source Quantum ESPRESSO suite
     for quantum simulation of materials; please cite
         "P. Giannozzi et al., J. Phys.:Condens. Matter 21 395502 (2009);
         "P. Giannozzi et al., J. Phys.:Condens. Matter 29 465901 (2017);
         "P. Giannozzi et al., J. Chem. Phys. 152 154105 (2020);
          URL http://www.quantum-espresso.org", 
     in publications or presentations arising from this work. More details at
     http://www.quantum-espresso.org/quote

     Serial version
     8308 MiB available memory on the printing compute node when the environment starts

     Waiting for input...
     Reading input from standard input

     Current dimensions of program PWSCF are:
     Max number of different atomic species (ntypx) = 10
     Max number of k-points (npk) =  40000
     Max angular momentum in pseudopotentials (lmaxx) =  4

     Atomic positions and unit cell read from directory:
     ./SCRATCH/gallium arsenide.save/

     file Ga.pz-dn-rrkjus_psl.0.2.UPF: wavefunction(s)  4S 3D renormalized


     G-vector sticks info
     --------------------
     sticks:   dense  smooth     PW     G-vecs:    dense   smooth      PW
     Sum        1237     613    187                28763    10081    1687

     Using Slab Decomposition



     bravais-lattice index     =            2
     lattice parameter (alat)  =      10.5897  a.u.
     unit-cell volume          =     296.8843 (a.u.)^3
     number of atoms/cell      =            2
     number of atomic types    =            2
     number of electrons       =        18.00
     number of Kohn-Sham states=           13
     kinetic-energy cutoff     =      40.0000  Ry
     charge density cutoff     =     320.0000  Ry
     Exchange-correlation= LDA
                           (   1   1   0   0   0   0   0)

     celldm(1)=  10.589669  celldm(2)=   0.000000  celldm(3)=   0.000000
     celldm(4)=   0.000000  celldm(5)=   0.000000  celldm(6)=   0.000000

     crystal axes: (cart. coord. in units of alat)
               a(1) = (  -0.500000   0.000000   0.500000 )  
               a(2) = (   0.000000   0.500000   0.500000 )  
               a(3) = (  -0.500000   0.500000   0.000000 )  

     reciprocal axes: (cart. coord. in units 2 pi/alat)
               b(1) = ( -1.000000 -1.000000  1.000000 )  
               b(2) = (  1.000000  1.000000  1.000000 )  
               b(3) = ( -1.000000  1.000000 -1.000000 )  


     PseudoPot. # 1 for Ga read from file:
     /home/paolo/LABQSM/pseudo/Ga.pz-dn-rrkjus_psl.0.2.UPF
     MD5 check sum: 337958ae198bc3768054a43796a587a1
     Pseudo is Ultrasoft + core correction, Zval = 13.0
     Generated using "atomic" code by A. Dal Corso  v.5.0.2 svn rev. 9415
     Using radial grid of 1205 points,  6 beta functions with: 
                l(1) =   0
                l(2) =   0
                l(3) =   1
                l(4) =   1
                l(5) =   2
                l(6) =   2
     Q(r) pseudized with 0 coefficients 


     PseudoPot. # 2 for As read from file:
     /home/paolo/LABQSM/pseudo/As.pz-n-rrkjus_psl.0.2.UPF
     MD5 check sum: f80104272e9b817acfe428865afbdb7e
     Pseudo is Ultrasoft + core correction, Zval =  5.0
     Generated using "atomic" code by A. Dal Corso  v.5.0.2 svn rev. 9415
     Using radial grid of 1209 points,  4 beta functions with: 
                l(1) =   0
                l(2) =   0
                l(3) =   1
                l(4) =   1
     Q(r) pseudized with 0 coefficients 


     atomic species   valence    mass     pseudopotential
        Ga            13.00    69.72300     Ga( 1.00)
        As             5.00    74.92200     As( 1.00)

     24 Sym. Ops. (no inversion) found


                                    s                        frac. trans.

      isym =  1     identity                                     

 cryst.   s( 1) = (     1          0          0      )
                  (     0          1          0      )
                  (     0          0          1      )

 cart.    s( 1) = (  1.0000000  0.0000000  0.0000000 )
                  (  0.0000000  1.0000000  0.0000000 )
                  (  0.0000000  0.0000000  1.0000000 )


      isym =  2     180 deg rotation - cart. axis [0,0,1]        

 cryst.   s( 2) = (     0          1         -1      )
                  (     1          0         -1      )
                  (     0          0         -1      )

 cart.    s( 2) = ( -1.0000000  0.0000000  0.0000000 )
                  (  0.0000000 -1.0000000  0.0000000 )
                  (  0.0000000  0.0000000  1.0000000 )


      isym =  3     180 deg rotation - cart. axis [0,1,0]        

 cryst.   s( 3) = (    -1          0          0      )
                  (    -1          0          1      )
                  (    -1          1          0      )

 cart.    s( 3) = ( -1.0000000  0.0000000  0.0000000 )
                  (  0.0000000  1.0000000  0.0000000 )
                  (  0.0000000  0.0000000 -1.0000000 )


      isym =  4     180 deg rotation - cart. axis [1,0,0]        

 cryst.   s( 4) = (     0         -1          1      )
                  (     0         -1          0      )
                  (     1         -1          0      )

 cart.    s( 4) = (  1.0000000  0.0000000  0.0000000 )
                  (  0.0000000 -1.0000000  0.0000000 )
                  (  0.0000000  0.0000000 -1.0000000 )


      isym =  5     120 deg rotation - cart. axis [-1,-1,-1]     

 cryst.   s( 5) = (    -1          0          1      )
                  (    -1          1          0      )
                  (    -1          0          0      )

 cart.    s( 5) = (  0.0000000  1.0000000  0.0000000 )
                  (  0.0000000  0.0000000  1.0000000 )
                  (  1.0000000  0.0000000  0.0000000 )


      isym =  6     120 deg rotation - cart. axis [-1,1,1]       

 cryst.   s( 6) = (     0          1          0      )
                  (     0          0          1      )
                  (     1          0          0      )

 cart.    s( 6) = (  0.0000000 -1.0000000  0.0000000 )
                  (  0.0000000  0.0000000  1.0000000 )
                  ( -1.0000000  0.0000000  0.0000000 )


      isym =  7     120 deg rotation - cart. axis [1,1,-1]       

 cryst.   s( 7) = (     1          0         -1      )
                  (     0          0         -1      )
                  (     0          1         -1      )

 cart.    s( 7) = (  0.0000000  1.0000000  0.0000000 )
                  (  0.0000000  0.0000000 -1.0000000 )
                  ( -1.0000000  0.0000000  0.0000000 )


      isym =  8     120 deg rotation - cart. axis [1,-1,1]       

 cryst.   s( 8) = (     0         -1          0      )
                  (     1         -1          0      )
                  (     0         -1          1      )

 cart.    s( 8) = (  0.0000000 -1.0000000  0.0000000 )
                  (  0.0000000  0.0000000 -1.0000000 )
                  (  1.0000000  0.0000000  0.0000000 )


      isym =  9     120 deg rotation - cart. axis [1,1,1]        

 cryst.   s( 9) = (     0          0         -1      )
                  (     0          1         -1      )
                  (     1          0         -1      )

 cart.    s( 9) = (  0.0000000  0.0000000  1.0000000 )
                  (  1.0000000  0.0000000  0.0000000 )
                  (  0.0000000  1.0000000  0.0000000 )


      isym = 10     120 deg rotation - cart. axis [-1,1,-1]      

 cryst.   s(10) = (    -1          1          0      )
                  (    -1          0          0      )
                  (    -1          0          1      )

 cart.    s(10) = (  0.0000000  0.0000000  1.0000000 )
                  ( -1.0000000  0.0000000  0.0000000 )
                  (  0.0000000 -1.0000000  0.0000000 )


      isym = 11     120 deg rotation - cart. axis [1,-1,-1]      

 cryst.   s(11) = (     0          0          1      )
                  (     1          0          0      )
                  (     0          1          0      )

 cart.    s(11) = (  0.0000000  0.0000000 -1.0000000 )
                  ( -1.0000000  0.0000000  0.0000000 )
                  (  0.0000000  1.0000000  0.0000000 )


      isym = 12     120 deg rotation - cart. axis [-1,-1,1]      

 cryst.   s(12) = (     1         -1          0      )
                  (     0         -1          1      )
                  (     0         -1          0      )

 cart.    s(12) = (  0.0000000  0.0000000 -1.0000000 )
                  (  1.0000000  0.0000000  0.0000000 )
                  (  0.0000000 -1.0000000  0.0000000 )


      isym = 13     inv. 180 deg rotation - cart. axis [1,1,0]   

 cryst.   s(13) = (     0          1          0      )
                  (     1          0          0      )
                  (     0          0          1      )

 cart.    s(13) = (  0.0000000 -1.0000000  0.0000000 )
                  ( -1.0000000  0.0000000  0.0000000 )
                  (  0.0000000  0.0000000  1.0000000 )


      isym = 14     inv. 180 deg rotation - cart. axis [1,-1,0]  

 cryst.   s(14) = (     1          0         -1      )
                  (     0          1         -1      )
                  (     0          0         -1      )

 cart.    s(14) = (  0.0000000  1.0000000  0.0000000 )
                  (  1.0000000  0.0000000  0.0000000 )
                  (  0.0000000  0.0000000  1.0000000 )


      isym = 15     inv.  90 deg rotation - cart. axis [0,0,-1]  

 cryst.   s(15) = (     0         -1          0      )
                  (     0         -1          1      )
                  (     1         -1          0      )

 cart.    s(15) = (  0.0000000 -1.0000000  0.0000000 )
                  (  1.0000000  0.0000000  0.0000000 )
                  (  0.0000000  0.0000000 -1.0000000 )


      isym = 16     inv.  90 deg rotation - cart. axis [0,0,1]   

 cryst.   s(16) = (    -1          0          1      )
                  (    -1          0          0      )
                  (    -1          1          0      )

 cart.    s(16) = (  0.0000000  1.0000000  0.0000000 )
                  ( -1.0000000  0.0000000  0.0000000 )
                  (  0.0000000  0.0000000 -1.0000000 )


      isym = 17     inv. 180 deg rotation - cart. axis [1,0,1]   

 cryst.   s(17) = (     1          0          0      )
                  (     0          0          1      )
                  (     0          1          0      )

 cart.    s(17) = (  0.0000000  0.0000000 -1.0000000 )
                  (  0.0000000  1.0000000  0.0000000 )
                  ( -1.0000000  0.0000000  0.0000000 )


      isym = 18     inv. 180 deg rotation - cart. axis [-1,0,1]  

 cryst.   s(18) = (    -1          0          0      )
                  (    -1          1          0      )
                  (    -1          0          1      )

 cart.    s(18) = (  0.0000000  0.0000000  1.0000000 )
                  (  0.0000000  1.0000000  0.0000000 )
                  (  1.0000000  0.0000000  0.0000000 )


      isym = 19     inv.  90 deg rotation - cart. axis [0,1,0]   

 cryst.   s(19) = (     0         -1          1      )
                  (     1         -1          0      )
                  (     0         -1          0      )

 cart.    s(19) = (  0.0000000  0.0000000 -1.0000000 )
                  (  0.0000000 -1.0000000  0.0000000 )
                  (  1.0000000  0.0000000  0.0000000 )


      isym = 20     inv.  90 deg rotation - cart. axis [0,-1,0]  

 cryst.   s(20) = (     0          1         -1      )
                  (     0          0         -1      )
                  (     1          0         -1      )

 cart.    s(20) = (  0.0000000  0.0000000  1.0000000 )
                  (  0.0000000 -1.0000000  0.0000000 )
                  ( -1.0000000  0.0000000  0.0000000 )


      isym = 21     inv. 180 deg rotation - cart. axis [0,1,1]   

 cryst.   s(21) = (     1         -1          0      )
                  (     0         -1          0      )
                  (     0         -1          1      )

 cart.    s(21) = (  1.0000000  0.0000000  0.0000000 )
                  (  0.0000000  0.0000000 -1.0000000 )
                  (  0.0000000 -1.0000000  0.0000000 )


      isym = 22     inv. 180 deg rotation - cart. axis [0,1,-1]  

 cryst.   s(22) = (     0          0          1      )
                  (     0          1          0      )
                  (     1          0          0      )

 cart.    s(22) = (  1.0000000  0.0000000  0.0000000 )
                  (  0.0000000  0.0000000  1.0000000 )
                  (  0.0000000  1.0000000  0.0000000 )


      isym = 23     inv.  90 deg rotation - cart. axis [-1,0,0]  

 cryst.   s(23) = (     0          0         -1      )
                  (     1          0         -1      )
                  (     0          1         -1      )

 cart.    s(23) = ( -1.0000000  0.0000000  0.0000000 )
                  (  0.0000000  0.0000000 -1.0000000 )
                  (  0.0000000  1.0000000  0.0000000 )


      isym = 24     inv.  90 deg rotation - cart. axis [1,0,0]   

 cryst.   s(24) = (    -1          1          0      )
                  (    -1          0          1      )
                  (    -1          0          0      )

 cart.    s(24) = ( -1.0000000  0.0000000  0.0000000 )
                  (  0.0000000  0.0000000  1.0000000 )
                  (  0.0000000 -1.0000000  0.0000000 )


     point group T_d (-43m) 
     there are  5 classes
     the character table:

       E     8C3   3C2   6S4   6s_d 
A_1    1.00  1.00  1.00  1.00  1.00
A_2    1.00  1.00  1.00 -1.00 -1.00
E      2.00 -1.00  2.00  0.00  0.00
T_1    3.00  0.00 -1.00  1.00 -1.00
T_2    3.00  0.00 -1.00 -1.00  1.00

     the symmetry operations in each class and the name of the first element:

     E        1
          identity                                               
     8C3      5    7    8    6   12    9   10   11
          120 deg rotation - cart. axis [-1,-1,-1]               
     3C2      2    3    4
          180 deg rotation - cart. axis [0,0,1]                  
     6S4     15   16   20   19   23   24
          inv.  90 deg rotation - cart. axis [0,0,-1]            
     6s_d    13   14   17   18   21   22
          inv. 180 deg rotation - cart. axis [1,1,0]             

   Cartesian axes

     site n.     atom                  positions (alat units)
         1           Ga  tau(   1) = (   0.0000000   0.0000000   0.0000000  )
         2           As  tau(   2) = (   0.2500000   0.2500000   0.2500000  )

   Crystallographic axes

     site n.     atom                  positions (cryst. coord.)
         1           Ga  tau(   1) = (  0.0000000  0.0000000  0.0000000  )
         2           As  tau(   2) = ( -0.2500000  0.7500000 -0.2500000  )

     number of k points=   201
                       cart. coord. in units 2pi/alat
        k(    1) = (   0.0000000   0.0000000   1.0000000), wk =   0.0099502
        k(    2) = (   0.0000000   0.0000000   0.9750000), wk =   0.0099502
        k(    3) = (   0.0000000   0.0000000   0.9500000), wk =   0.0099502
        k(    4) = (   0.0000000   0.0000000   0.9250000), wk =   0.0099502
        k(    5) = (   0.0000000   0.0000000   0.9000000), wk =   0.0099502
        k(    6) = (   0.0000000   0.0000000   0.8750000), wk =   0.0099502
        k(    7) = (   0.0000000   0.0000000   0.8500000), wk =   0.0099502
        k(    8) = (   0.0000000   0.0000000   0.8250000), wk =   0.0099502
        k(    9) = (   0.0000000   0.0000000   0.8000000), wk =   0.0099502
        k(   10) = (   0.0000000   0.0000000   0.7750000), wk =   0.0099502
        k(   11) = (   0.0000000   0.0000000   0.7500000), wk =   0.0099502
        k(   12) = (   0.0000000   0.0000000   0.7250000), wk =   0.0099502
        k(   13) = (   0.0000000   0.0000000   0.7000000), wk =   0.0099502
        k(   14) = (   0.0000000   0.0000000   0.6750000), wk =   0.0099502
        k(   15) = (   0.0000000   0.0000000   0.6500000), wk =   0.0099502
        k(   16) = (   0.0000000   0.0000000   0.6250000), wk =   0.0099502
        k(   17) = (   0.0000000   0.0000000   0.6000000), wk =   0.0099502
        k(   18) = (   0.0000000   0.0000000   0.5750000), wk =   0.0099502
        k(   19) = (   0.0000000   0.0000000   0.5500000), wk =   0.0099502
        k(   20) = (   0.0000000   0.0000000   0.5250000), wk =   0.0099502
        k(   21) = (   0.0000000   0.0000000   0.5000000), wk =   0.0099502
        k(   22) = (   0.0000000   0.0000000   0.4750000), wk =   0.0099502
        k(   23) = (   0.0000000   0.0000000   0.4500000), wk =   0.0099502
        k(   24) = (   0.0000000   0.0000000   0.4250000), wk =   0.0099502
        k(   25) = (   0.0000000   0.0000000   0.4000000), wk =   0.0099502
        k(   26) = (   0.0000000   0.0000000   0.3750000), wk =   0.0099502
        k(   27) = (   0.0000000   0.0000000   0.3500000), wk =   0.0099502
        k(   28) = (   0.0000000   0.0000000   0.3250000), wk =   0.0099502
        k(   29) = (   0.0000000   0.0000000   0.3000000), wk =   0.0099502
        k(   30) = (   0.0000000   0.0000000   0.2750000), wk =   0.0099502
        k(   31) = (   0.0000000   0.0000000   0.2500000), wk =   0.0099502
        k(   32) = (   0.0000000   0.0000000   0.2250000), wk =   0.0099502
        k(   33) = (   0.0000000   0.0000000   0.2000000), wk =   0.0099502
        k(   34) = (   0.0000000   0.0000000   0.1750000), wk =   0.0099502
        k(   35) = (   0.0000000   0.0000000   0.1500000), wk =   0.0099502
        k(   36) = (   0.0000000   0.0000000   0.1250000), wk =   0.0099502
        k(   37) = (   0.0000000   0.0000000   0.1000000), wk =   0.0099502
        k(   38) = (   0.0000000   0.0000000   0.0750000), wk =   0.0099502
        k(   39) = (   0.0000000   0.0000000   0.0500000), wk =   0.0099502
        k(   40) = (   0.0000000   0.0000000   0.0250000), wk =   0.0099502
        k(   41) = (   0.0000000   0.0000000   0.0000000), wk =   0.0099502
        k(   42) = (  -0.0125000   0.0125000   0.0125000), wk =   0.0099502
        k(   43) = (  -0.0250000   0.0250000   0.0250000), wk =   0.0099502
        k(   44) = (  -0.0375000   0.0375000   0.0375000), wk =   0.0099502
        k(   45) = (  -0.0500000   0.0500000   0.0500000), wk =   0.0099502
        k(   46) = (  -0.0625000   0.0625000   0.0625000), wk =   0.0099502
        k(   47) = (  -0.0750000   0.0750000   0.0750000), wk =   0.0099502
        k(   48) = (  -0.0875000   0.0875000   0.0875000), wk =   0.0099502
        k(   49) = (  -0.1000000   0.1000000   0.1000000), wk =   0.0099502
        k(   50) = (  -0.1125000   0.1125000   0.1125000), wk =   0.0099502
        k(   51) = (  -0.1250000   0.1250000   0.1250000), wk =   0.0099502
        k(   52) = (  -0.1375000   0.1375000   0.1375000), wk =   0.0099502
        k(   53) = (  -0.1500000   0.1500000   0.1500000), wk =   0.0099502
        k(   54) = (  -0.1625000   0.1625000   0.1625000), wk =   0.0099502
        k(   55) = (  -0.1750000   0.1750000   0.1750000), wk =   0.0099502
        k(   56) = (  -0.1875000   0.1875000   0.1875000), wk =   0.0099502
        k(   57) = (  -0.2000000   0.2000000   0.2000000), wk =   0.0099502
        k(   58) = (  -0.2125000   0.2125000   0.2125000), wk =   0.0099502
        k(   59) = (  -0.2250000   0.2250000   0.2250000), wk =   0.0099502
        k(   60) = (  -0.2375000   0.2375000   0.2375000), wk =   0.0099502
        k(   61) = (  -0.2500000   0.2500000   0.2500000), wk =   0.0099502
        k(   62) = (  -0.2625000   0.2625000   0.2625000), wk =   0.0099502
        k(   63) = (  -0.2750000   0.2750000   0.2750000), wk =   0.0099502
        k(   64) = (  -0.2875000   0.2875000   0.2875000), wk =   0.0099502
        k(   65) = (  -0.3000000   0.3000000   0.3000000), wk =   0.0099502
        k(   66) = (  -0.3125000   0.3125000   0.3125000), wk =   0.0099502
        k(   67) = (  -0.3250000   0.3250000   0.3250000), wk =   0.0099502
        k(   68) = (  -0.3375000   0.3375000   0.3375000), wk =   0.0099502
        k(   69) = (  -0.3500000   0.3500000   0.3500000), wk =   0.0099502
        k(   70) = (  -0.3625000   0.3625000   0.3625000), wk =   0.0099502
        k(   71) = (  -0.3750000   0.3750000   0.3750000), wk =   0.0099502
        k(   72) = (  -0.3875000   0.3875000   0.3875000), wk =   0.0099502
        k(   73) = (  -0.4000000   0.4000000   0.4000000), wk =   0.0099502
        k(   74) = (  -0.4125000   0.4125000   0.4125000), wk =   0.0099502
        k(   75) = (  -0.4250000   0.4250000   0.4250000), wk =   0.0099502
        k(   76) = (  -0.4375000   0.4375000   0.4375000), wk =   0.0099502
        k(   77) = (  -0.4500000   0.4500000   0.4500000), wk =   0.0099502
        k(   78) = (  -0.4625000   0.4625000   0.4625000), wk =   0.0099502
        k(   79) = (  -0.4750000   0.4750000   0.4750000), wk =   0.0099502
        k(   80) = (  -0.4875000   0.4875000   0.4875000), wk =   0.0099502
        k(   81) = (  -0.5000000   0.5000000   0.5000000), wk =   0.0099502
        k(   82) = (  -0.5000000   0.4875000   0.5125000), wk =   0.0099502
        k(   83) = (  -0.5000000   0.4750000   0.5250000), wk =   0.0099502
        k(   84) = (  -0.5000000   0.4625000   0.5375000), wk =   0.0099502
        k(   85) = (  -0.5000000   0.4500000   0.5500000), wk =   0.0099502
        k(   86) = (  -0.5000000   0.4375000   0.5625000), wk =   0.0099502
        k(   87) = (  -0.5000000   0.4250000   0.5750000), wk =   0.0099502
        k(   88) = (  -0.5000000   0.4125000   0.5875000), wk =   0.0099502
        k(   89) = (  -0.5000000   0.4000000   0.6000000), wk =   0.0099502
        k(   90) = (  -0.5000000   0.3875000   0.6125000), wk =   0.0099502
        k(   91) = (  -0.5000000   0.3750000   0.6250000), wk =   0.0099502
        k(   92) = (  -0.5000000   0.3625000   0.6375000), wk =   0.0099502
        k(   93) = (  -0.5000000   0.3500000   0.6500000), wk =   0.0099502
        k(   94) = (  -0.5000000   0.3375000   0.6625000), wk =   0.0099502
        k(   95) = (  -0.5000000   0.3250000   0.6750000), wk =   0.0099502
        k(   96) = (  -0.5000000   0.3125000   0.6875000), wk =   0.0099502
        k(   97) = (  -0.5000000   0.3000000   0.7000000), wk =   0.0099502
        k(   98) = (  -0.5000000   0.2875000   0.7125000), wk =   0.0099502
        k(   99) = (  -0.5000000   0.2750000   0.7250000), wk =   0.0099502
        k(  100) = (  -0.5000000   0.2625000   0.7375000), wk =   0.0099502
        k(  101) = (  -0.5000000   0.2500000   0.7500000), wk =   0.0099502
        k(  102) = (  -0.5000000   0.2375000   0.7625000), wk =   0.0099502
        k(  103) = (  -0.5000000   0.2250000   0.7750000), wk =   0.0099502
        k(  104) = (  -0.5000000   0.2125000   0.7875000), wk =   0.0099502
        k(  105) = (  -0.5000000   0.2000000   0.8000000), wk =   0.0099502
        k(  106) = (  -0.5000000   0.1875000   0.8125000), wk =   0.0099502
        k(  107) = (  -0.5000000   0.1750000   0.8250000), wk =   0.0099502
        k(  108) = (  -0.5000000   0.1625000   0.8375000), wk =   0.0099502
        k(  109) = (  -0.5000000   0.1500000   0.8500000), wk =   0.0099502
        k(  110) = (  -0.5000000   0.1375000   0.8625000), wk =   0.0099502
        k(  111) = (  -0.5000000   0.1250000   0.8750000), wk =   0.0099502
        k(  112) = (  -0.5000000   0.1125000   0.8875000), wk =   0.0099502
        k(  113) = (  -0.5000000   0.1000000   0.9000000), wk =   0.0099502
        k(  114) = (  -0.5000000   0.0875000   0.9125000), wk =   0.0099502
        k(  115) = (  -0.5000000   0.0750000   0.9250000), wk =   0.0099502
        k(  116) = (  -0.5000000   0.0625000   0.9375000), wk =   0.0099502
        k(  117) = (  -0.5000000   0.0500000   0.9500000), wk =   0.0099502
        k(  118) = (  -0.5000000   0.0375000   0.9625000), wk =   0.0099502
        k(  119) = (  -0.5000000   0.0250000   0.9750000), wk =   0.0099502
        k(  120) = (  -0.5000000   0.0125000   0.9875000), wk =   0.0099502
        k(  121) = (  -0.5000000   0.0000000   1.0000000), wk =   0.0099502
        k(  122) = (  -0.5062500   0.0000000   0.9937500), wk =   0.0099502
        k(  123) = (  -0.5125000   0.0000000   0.9875000), wk =   0.0099502
        k(  124) = (  -0.5187500   0.0000000   0.9812500), wk =   0.0099502
        k(  125) = (  -0.5250000   0.0000000   0.9750000), wk =   0.0099502
        k(  126) = (  -0.5312500   0.0000000   0.9687500), wk =   0.0099502
        k(  127) = (  -0.5375000   0.0000000   0.9625000), wk =   0.0099502
        k(  128) = (  -0.5437500   0.0000000   0.9562500), wk =   0.0099502
        k(  129) = (  -0.5500000   0.0000000   0.9500000), wk =   0.0099502
        k(  130) = (  -0.5562500   0.0000000   0.9437500), wk =   0.0099502
        k(  131) = (  -0.5625000   0.0000000   0.9375000), wk =   0.0099502
        k(  132) = (  -0.5687500   0.0000000   0.9312500), wk =   0.0099502
        k(  133) = (  -0.5750000   0.0000000   0.9250000), wk =   0.0099502
        k(  134) = (  -0.5812500   0.0000000   0.9187500), wk =   0.0099502
        k(  135) = (  -0.5875000   0.0000000   0.9125000), wk =   0.0099502
        k(  136) = (  -0.5937500   0.0000000   0.9062500), wk =   0.0099502
        k(  137) = (  -0.6000000   0.0000000   0.9000000), wk =   0.0099502
        k(  138) = (  -0.6062500   0.0000000   0.8937500), wk =   0.0099502
        k(  139) = (  -0.6125000   0.0000000   0.8875000), wk =   0.0099502
        k(  140) = (  -0.6187500   0.0000000   0.8812500), wk =   0.0099502
        k(  141) = (  -0.6250000   0.0000000   0.8750000), wk =   0.0099502
        k(  142) = (  -0.6312500   0.0000000   0.8687500), wk =   0.0099502
        k(  143) = (  -0.6375000   0.0000000   0.8625000), wk =   0.0099502
        k(  144) = (  -0.6437500   0.0000000   0.8562500), wk =   0.0099502
        k(  145) = (  -0.6500000   0.0000000   0.8500000), wk =   0.0099502
        k(  146) = (  -0.6562500   0.0000000   0.8437500), wk =   0.0099502
        k(  147) = (  -0.6625000   0.0000000   0.8375000), wk =   0.0099502
        k(  148) = (  -0.6687500   0.0000000   0.8312500), wk =   0.0099502
        k(  149) = (  -0.6750000   0.0000000   0.8250000), wk =   0.0099502
        k(  150) = (  -0.6812500   0.0000000   0.8187500), wk =   0.0099502
        k(  151) = (  -0.6875000   0.0000000   0.8125000), wk =   0.0099502
        k(  152) = (  -0.6937500   0.0000000   0.8062500), wk =   0.0099502
        k(  153) = (  -0.7000000   0.0000000   0.8000000), wk =   0.0099502
        k(  154) = (  -0.7062500   0.0000000   0.7937500), wk =   0.0099502
        k(  155) = (  -0.7125000   0.0000000   0.7875000), wk =   0.0099502
        k(  156) = (  -0.7187500   0.0000000   0.7812500), wk =   0.0099502
        k(  157) = (  -0.7250000   0.0000000   0.7750000), wk =   0.0099502
        k(  158) = (  -0.7312500   0.0000000   0.7687500), wk =   0.0099502
        k(  159) = (  -0.7375000   0.0000000   0.7625000), wk =   0.0099502
        k(  160) = (  -0.7437500   0.0000000   0.7562500), wk =   0.0099502
        k(  161) = (  -0.7500000   0.0000000   0.7500000), wk =   0.0099502
        k(  162) = (  -0.7312500   0.0000000   0.7312500), wk =   0.0099502
        k(  163) = (  -0.7125000   0.0000000   0.7125000), wk =   0.0099502
        k(  164) = (  -0.6937500   0.0000000   0.6937500), wk =   0.0099502
        k(  165) = (  -0.6750000   0.0000000   0.6750000), wk =   0.0099502
        k(  166) = (  -0.6562500   0.0000000   0.6562500), wk =   0.0099502
        k(  167) = (  -0.6375000   0.0000000   0.6375000), wk =   0.0099502
        k(  168) = (  -0.6187500   0.0000000   0.6187500), wk =   0.0099502
        k(  169) = (  -0.6000000   0.0000000   0.6000000), wk =   0.0099502
        k(  170) = (  -0.5812500   0.0000000   0.5812500), wk =   0.0099502
        k(  171) = (  -0.5625000   0.0000000   0.5625000), wk =   0.0099502
        k(  172) = (  -0.5437500   0.0000000   0.5437500), wk =   0.0099502
        k(  173) = (  -0.5250000   0.0000000   0.5250000), wk =   0.0099502
        k(  174) = (  -0.5062500   0.0000000   0.5062500), wk =   0.0099502
        k(  175) = (  -0.4875000   0.0000000   0.4875000), wk =   0.0099502
        k(  176) = (  -0.4687500   0.0000000   0.4687500), wk =   0.0099502
        k(  177) = (  -0.4500000   0.0000000   0.4500000), wk =   0.0099502
        k(  178) = (  -0.4312500   0.0000000   0.4312500), wk =   0.0099502
        k(  179) = (  -0.4125000   0.0000000   0.4125000), wk =   0.0099502
        k(  180) = (  -0.3937500   0.0000000   0.3937500), wk =   0.0099502
        k(  181) = (  -0.3750000   0.0000000   0.3750000), wk =   0.0099502
        k(  182) = (  -0.3562500   0.0000000   0.3562500), wk =   0.0099502
        k(  183) = (  -0.3375000   0.0000000   0.3375000), wk =   0.0099502
        k(  184) = (  -0.3187500   0.0000000   0.3187500), wk =   0.0099502
        k(  185) = (  -0.3000000   0.0000000   0.3000000), wk =   0.0099502
        k(  186) = (  -0.2812500   0.0000000   0.2812500), wk =   0.0099502
        k(  187) = (  -0.2625000   0.0000000   0.2625000), wk =   0.0099502
        k(  188) = (  -0.2437500   0.0000000   0.2437500), wk =   0.0099502
        k(  189) = (  -0.2250000   0.0000000   0.2250000), wk =   0.0099502
        k(  190) = (  -0.2062500   0.0000000   0.2062500), wk =   0.0099502
        k(  191) = (  -0.1875000   0.0000000   0.1875000), wk =   0.0099502
        k(  192) = (  -0.1687500   0.0000000   0.1687500), wk =   0.0099502
        k(  193) = (  -0.1500000   0.0000000   0.1500000), wk =   0.0099502
        k(  194) = (  -0.1312500   0.0000000   0.1312500), wk =   0.0099502
        k(  195) = (  -0.1125000   0.0000000   0.1125000), wk =   0.0099502
        k(  196) = (  -0.0937500   0.0000000   0.0937500), wk =   0.0099502
        k(  197) = (  -0.0750000   0.0000000   0.0750000), wk =   0.0099502
        k(  198) = (  -0.0562500   0.0000000   0.0562500), wk =   0.0099502
        k(  199) = (  -0.0375000   0.0000000   0.0375000), wk =   0.0099502
        k(  200) = (  -0.0187500   0.0000000   0.0187500), wk =   0.0099502
        k(  201) = (   0.0000000   0.0000000   0.0000000), wk =   0.0099502

                       cryst. coord.
        k(    1) = (   0.5000000   0.5000000   0.0000000), wk =   0.0099502
        k(    2) = (   0.4875000   0.4875000   0.0000000), wk =   0.0099502
        k(    3) = (   0.4750000   0.4750000   0.0000000), wk =   0.0099502
        k(    4) = (   0.4625000   0.4625000   0.0000000), wk =   0.0099502
        k(    5) = (   0.4500000   0.4500000   0.0000000), wk =   0.0099502
        k(    6) = (   0.4375000   0.4375000   0.0000000), wk =   0.0099502
        k(    7) = (   0.4250000   0.4250000   0.0000000), wk =   0.0099502
        k(    8) = (   0.4125000   0.4125000   0.0000000), wk =   0.0099502
        k(    9) = (   0.4000000   0.4000000   0.0000000), wk =   0.0099502
        k(   10) = (   0.3875000   0.3875000   0.0000000), wk =   0.0099502
        k(   11) = (   0.3750000   0.3750000   0.0000000), wk =   0.0099502
        k(   12) = (   0.3625000   0.3625000   0.0000000), wk =   0.0099502
        k(   13) = (   0.3500000   0.3500000   0.0000000), wk =   0.0099502
        k(   14) = (   0.3375000   0.3375000   0.0000000), wk =   0.0099502
        k(   15) = (   0.3250000   0.3250000   0.0000000), wk =   0.0099502
        k(   16) = (   0.3125000   0.3125000   0.0000000), wk =   0.0099502
        k(   17) = (   0.3000000   0.3000000   0.0000000), wk =   0.0099502
        k(   18) = (   0.2875000   0.2875000   0.0000000), wk =   0.0099502
        k(   19) = (   0.2750000   0.2750000   0.0000000), wk =   0.0099502
        k(   20) = (   0.2625000   0.2625000   0.0000000), wk =   0.0099502
        k(   21) = (   0.2500000   0.2500000   0.0000000), wk =   0.0099502
        k(   22) = (   0.2375000   0.2375000   0.0000000), wk =   0.0099502
        k(   23) = (   0.2250000   0.2250000   0.0000000), wk =   0.0099502
        k(   24) = (   0.2125000   0.2125000   0.0000000), wk =   0.0099502
        k(   25) = (   0.2000000   0.2000000   0.0000000), wk =   0.0099502
        k(   26) = (   0.1875000   0.1875000   0.0000000), wk =   0.0099502
        k(   27) = (   0.1750000   0.1750000   0.0000000), wk =   0.0099502
        k(   28) = (   0.1625000   0.1625000   0.0000000), wk =   0.0099502
        k(   29) = (   0.1500000   0.1500000   0.0000000), wk =   0.0099502
        k(   30) = (   0.1375000   0.1375000   0.0000000), wk =   0.0099502
        k(   31) = (   0.1250000   0.1250000   0.0000000), wk =   0.0099502
        k(   32) = (   0.1125000   0.1125000   0.0000000), wk =   0.0099502
        k(   33) = (   0.1000000   0.1000000   0.0000000), wk =   0.0099502
        k(   34) = (   0.0875000   0.0875000   0.0000000), wk =   0.0099502
        k(   35) = (   0.0750000   0.0750000   0.0000000), wk =   0.0099502
        k(   36) = (   0.0625000   0.0625000   0.0000000), wk =   0.0099502
        k(   37) = (   0.0500000   0.0500000   0.0000000), wk =   0.0099502
        k(   38) = (   0.0375000   0.0375000   0.0000000), wk =   0.0099502
        k(   39) = (   0.0250000   0.0250000   0.0000000), wk =   0.0099502
        k(   40) = (   0.0125000   0.0125000   0.0000000), wk =   0.0099502
        k(   41) = (   0.0000000   0.0000000   0.0000000), wk =   0.0099502
        k(   42) = (   0.0125000   0.0125000   0.0125000), wk =   0.0099502
        k(   43) = (   0.0250000   0.0250000   0.0250000), wk =   0.0099502
        k(   44) = (   0.0375000   0.0375000   0.0375000), wk =   0.0099502
        k(   45) = (   0.0500000   0.0500000   0.0500000), wk =   0.0099502
        k(   46) = (   0.0625000   0.0625000   0.0625000), wk =   0.0099502
        k(   47) = (   0.0750000   0.0750000   0.0750000), wk =   0.0099502
        k(   48) = (   0.0875000   0.0875000   0.0875000), wk =   0.0099502
        k(   49) = (   0.1000000   0.1000000   0.1000000), wk =   0.0099502
        k(   50) = (   0.1125000   0.1125000   0.1125000), wk =   0.0099502
        k(   51) = (   0.1250000   0.1250000   0.1250000), wk =   0.0099502
        k(   52) = (   0.1375000   0.1375000   0.1375000), wk =   0.0099502
        k(   53) = (   0.1500000   0.1500000   0.1500000), wk =   0.0099502
        k(   54) = (   0.1625000   0.1625000   0.1625000), wk =   0.0099502
        k(   55) = (   0.1750000   0.1750000   0.1750000), wk =   0.0099502
        k(   56) = (   0.1875000   0.1875000   0.1875000), wk =   0.0099502
        k(   57) = (   0.2000000   0.2000000   0.2000000), wk =   0.0099502
        k(   58) = (   0.2125000   0.2125000   0.2125000), wk =   0.0099502
        k(   59) = (   0.2250000   0.2250000   0.2250000), wk =   0.0099502
        k(   60) = (   0.2375000   0.2375000   0.2375000), wk =   0.0099502
        k(   61) = (   0.2500000   0.2500000   0.2500000), wk =   0.0099502
        k(   62) = (   0.2625000   0.2625000   0.2625000), wk =   0.0099502
        k(   63) = (   0.2750000   0.2750000   0.2750000), wk =   0.0099502
        k(   64) = (   0.2875000   0.2875000   0.2875000), wk =   0.0099502
        k(   65) = (   0.3000000   0.3000000   0.3000000), wk =   0.0099502
        k(   66) = (   0.3125000   0.3125000   0.3125000), wk =   0.0099502
        k(   67) = (   0.3250000   0.3250000   0.3250000), wk =   0.0099502
        k(   68) = (   0.3375000   0.3375000   0.3375000), wk =   0.0099502
        k(   69) = (   0.3500000   0.3500000   0.3500000), wk =   0.0099502
        k(   70) = (   0.3625000   0.3625000   0.3625000), wk =   0.0099502
        k(   71) = (   0.3750000   0.3750000   0.3750000), wk =   0.0099502
        k(   72) = (   0.3875000   0.3875000   0.3875000), wk =   0.0099502
        k(   73) = (   0.4000000   0.4000000   0.4000000), wk =   0.0099502
        k(   74) = (   0.4125000   0.4125000   0.4125000), wk =   0.0099502
        k(   75) = (   0.4250000   0.4250000   0.4250000), wk =   0.0099502
        k(   76) = (   0.4375000   0.4375000   0.4375000), wk =   0.0099502
        k(   77) = (   0.4500000   0.4500000   0.4500000), wk =   0.0099502
        k(   78) = (   0.4625000   0.4625000   0.4625000), wk =   0.0099502
        k(   79) = (   0.4750000   0.4750000   0.4750000), wk =   0.0099502
        k(   80) = (   0.4875000   0.4875000   0.4875000), wk =   0.0099502
        k(   81) = (   0.5000000   0.5000000   0.5000000), wk =   0.0099502
        k(   82) = (   0.5062500   0.5000000   0.4937500), wk =   0.0099502
        k(   83) = (   0.5125000   0.5000000   0.4875000), wk =   0.0099502
        k(   84) = (   0.5187500   0.5000000   0.4812500), wk =   0.0099502
        k(   85) = (   0.5250000   0.5000000   0.4750000), wk =   0.0099502
        k(   86) = (   0.5312500   0.5000000   0.4687500), wk =   0.0099502
        k(   87) = (   0.5375000   0.5000000   0.4625000), wk =   0.0099502
        k(   88) = (   0.5437500   0.5000000   0.4562500), wk =   0.0099502
        k(   89) = (   0.5500000   0.5000000   0.4500000), wk =   0.0099502
        k(   90) = (   0.5562500   0.5000000   0.4437500), wk =   0.0099502
        k(   91) = (   0.5625000   0.5000000   0.4375000), wk =   0.0099502
        k(   92) = (   0.5687500   0.5000000   0.4312500), wk =   0.0099502
        k(   93) = (   0.5750000   0.5000000   0.4250000), wk =   0.0099502
        k(   94) = (   0.5812500   0.5000000   0.4187500), wk =   0.0099502
        k(   95) = (   0.5875000   0.5000000   0.4125000), wk =   0.0099502
        k(   96) = (   0.5937500   0.5000000   0.4062500), wk =   0.0099502
        k(   97) = (   0.6000000   0.5000000   0.4000000), wk =   0.0099502
        k(   98) = (   0.6062500   0.5000000   0.3937500), wk =   0.0099502
        k(   99) = (   0.6125000   0.5000000   0.3875000), wk =   0.0099502
        k(  100) = (   0.6187500   0.5000000   0.3812500), wk =   0.0099502
        k(  101) = (   0.6250000   0.5000000   0.3750000), wk =   0.0099502
        k(  102) = (   0.6312500   0.5000000   0.3687500), wk =   0.0099502
        k(  103) = (   0.6375000   0.5000000   0.3625000), wk =   0.0099502
        k(  104) = (   0.6437500   0.5000000   0.3562500), wk =   0.0099502
        k(  105) = (   0.6500000   0.5000000   0.3500000), wk =   0.0099502
        k(  106) = (   0.6562500   0.5000000   0.3437500), wk =   0.0099502
        k(  107) = (   0.6625000   0.5000000   0.3375000), wk =   0.0099502
        k(  108) = (   0.6687500   0.5000000   0.3312500), wk =   0.0099502
        k(  109) = (   0.6750000   0.5000000   0.3250000), wk =   0.0099502
        k(  110) = (   0.6812500   0.5000000   0.3187500), wk =   0.0099502
        k(  111) = (   0.6875000   0.5000000   0.3125000), wk =   0.0099502
        k(  112) = (   0.6937500   0.5000000   0.3062500), wk =   0.0099502
        k(  113) = (   0.7000000   0.5000000   0.3000000), wk =   0.0099502
        k(  114) = (   0.7062500   0.5000000   0.2937500), wk =   0.0099502
        k(  115) = (   0.7125000   0.5000000   0.2875000), wk =   0.0099502
        k(  116) = (   0.7187500   0.5000000   0.2812500), wk =   0.0099502
        k(  117) = (   0.7250000   0.5000000   0.2750000), wk =   0.0099502
        k(  118) = (   0.7312500   0.5000000   0.2687500), wk =   0.0099502
        k(  119) = (   0.7375000   0.5000000   0.2625000), wk =   0.0099502
        k(  120) = (   0.7437500   0.5000000   0.2562500), wk =   0.0099502
        k(  121) = (   0.7500000   0.5000000   0.2500000), wk =   0.0099502
        k(  122) = (   0.7500000   0.4968750   0.2531250), wk =   0.0099502
        k(  123) = (   0.7500000   0.4937500   0.2562500), wk =   0.0099502
        k(  124) = (   0.7500000   0.4906250   0.2593750), wk =   0.0099502
        k(  125) = (   0.7500000   0.4875000   0.2625000), wk =   0.0099502
        k(  126) = (   0.7500000   0.4843750   0.2656250), wk =   0.0099502
        k(  127) = (   0.7500000   0.4812500   0.2687500), wk =   0.0099502
        k(  128) = (   0.7500000   0.4781250   0.2718750), wk =   0.0099502
        k(  129) = (   0.7500000   0.4750000   0.2750000), wk =   0.0099502
        k(  130) = (   0.7500000   0.4718750   0.2781250), wk =   0.0099502
        k(  131) = (   0.7500000   0.4687500   0.2812500), wk =   0.0099502
        k(  132) = (   0.7500000   0.4656250   0.2843750), wk =   0.0099502
        k(  133) = (   0.7500000   0.4625000   0.2875000), wk =   0.0099502
        k(  134) = (   0.7500000   0.4593750   0.2906250), wk =   0.0099502
        k(  135) = (   0.7500000   0.4562500   0.2937500), wk =   0.0099502
        k(  136) = (   0.7500000   0.4531250   0.2968750), wk =   0.0099502
        k(  137) = (   0.7500000   0.4500000   0.3000000), wk =   0.0099502
        k(  138) = (   0.7500000   0.4468750   0.3031250), wk =   0.0099502
        k(  139) = (   0.7500000   0.4437500   0.3062500), wk =   0.0099502
        k(  140) = (   0.7500000   0.4406250   0.3093750), wk =   0.0099502
        k(  141) = (   0.7500000   0.4375000   0.3125000), wk =   0.0099502
        k(  142) = (   0.7500000   0.4343750   0.3156250), wk =   0.0099502
        k(  143) = (   0.7500000   0.4312500   0.3187500), wk =   0.0099502
        k(  144) = (   0.7500000   0.4281250   0.3218750), wk =   0.0099502
        k(  145) = (   0.7500000   0.4250000   0.3250000), wk =   0.0099502
        k(  146) = (   0.7500000   0.4218750   0.3281250), wk =   0.0099502
        k(  147) = (   0.7500000   0.4187500   0.3312500), wk =   0.0099502
        k(  148) = (   0.7500000   0.4156250   0.3343750), wk =   0.0099502
        k(  149) = (   0.7500000   0.4125000   0.3375000), wk =   0.0099502
        k(  150) = (   0.7500000   0.4093750   0.3406250), wk =   0.0099502
        k(  151) = (   0.7500000   0.4062500   0.3437500), wk =   0.0099502
        k(  152) = (   0.7500000   0.4031250   0.3468750), wk =   0.0099502
        k(  153) = (   0.7500000   0.4000000   0.3500000), wk =   0.0099502
        k(  154) = (   0.7500000   0.3968750   0.3531250), wk =   0.0099502
        k(  155) = (   0.7500000   0.3937500   0.3562500), wk =   0.0099502
        k(  156) = (   0.7500000   0.3906250   0.3593750), wk =   0.0099502
        k(  157) = (   0.7500000   0.3875000   0.3625000), wk =   0.0099502
        k(  158) = (   0.7500000   0.3843750   0.3656250), wk =   0.0099502
        k(  159) = (   0.7500000   0.3812500   0.3687500), wk =   0.0099502
        k(  160) = (   0.7500000   0.3781250   0.3718750), wk =   0.0099502
        k(  161) = (   0.7500000   0.3750000   0.3750000), wk =   0.0099502
        k(  162) = (   0.7312500   0.3656250   0.3656250), wk =   0.0099502
        k(  163) = (   0.7125000   0.3562500   0.3562500), wk =   0.0099502
        k(  164) = (   0.6937500   0.3468750   0.3468750), wk =   0.0099502
        k(  165) = (   0.6750000   0.3375000   0.3375000), wk =   0.0099502
        k(  166) = (   0.6562500   0.3281250   0.3281250), wk =   0.0099502
        k(  167) = (   0.6375000   0.3187500   0.3187500), wk =   0.0099502
        k(  168) = (   0.6187500   0.3093750   0.3093750), wk =   0.0099502
        k(  169) = (   0.6000000   0.3000000   0.3000000), wk =   0.0099502
        k(  170) = (   0.5812500   0.2906250   0.2906250), wk =   0.0099502
        k(  171) = (   0.5625000   0.2812500   0.2812500), wk =   0.0099502
        k(  172) = (   0.5437500   0.2718750   0.2718750), wk =   0.0099502
        k(  173) = (   0.5250000   0.2625000   0.2625000), wk =   0.0099502
        k(  174) = (   0.5062500   0.2531250   0.2531250), wk =   0.0099502
        k(  175) = (   0.4875000   0.2437500   0.2437500), wk =   0.0099502
        k(  176) = (   0.4687500   0.2343750   0.2343750), wk =   0.0099502
        k(  177) = (   0.4500000   0.2250000   0.2250000), wk =   0.0099502
        k(  178) = (   0.4312500   0.2156250   0.2156250), wk =   0.0099502
        k(  179) = (   0.4125000   0.2062500   0.2062500), wk =   0.0099502
        k(  180) = (   0.3937500   0.1968750   0.1968750), wk =   0.0099502
        k(  181) = (   0.3750000   0.1875000   0.1875000), wk =   0.0099502
        k(  182) = (   0.3562500   0.1781250   0.1781250), wk =   0.0099502
        k(  183) = (   0.3375000   0.1687500   0.1687500), wk =   0.0099502
        k(  184) = (   0.3187500   0.1593750   0.1593750), wk =   0.0099502
        k(  185) = (   0.3000000   0.1500000   0.1500000), wk =   0.0099502
        k(  186) = (   0.2812500   0.1406250   0.1406250), wk =   0.0099502
        k(  187) = (   0.2625000   0.1312500   0.1312500), wk =   0.0099502
        k(  188) = (   0.2437500   0.1218750   0.1218750), wk =   0.0099502
        k(  189) = (   0.2250000   0.1125000   0.1125000), wk =   0.0099502
        k(  190) = (   0.2062500   0.1031250   0.1031250), wk =   0.0099502
        k(  191) = (   0.1875000   0.0937500   0.0937500), wk =   0.0099502
        k(  192) = (   0.1687500   0.0843750   0.0843750), wk =   0.0099502
        k(  193) = (   0.1500000   0.0750000   0.0750000), wk =   0.0099502
        k(  194) = (   0.1312500   0.0656250   0.0656250), wk =   0.0099502
        k(  195) = (   0.1125000   0.0562500   0.0562500), wk =   0.0099502
        k(  196) = (   0.0937500   0.0468750   0.0468750), wk =   0.0099502
        k(  197) = (   0.0750000   0.0375000   0.0375000), wk =   0.0099502
        k(  198) = (   0.0562500   0.0281250   0.0281250), wk =   0.0099502
        k(  199) = (   0.0375000   0.0187500   0.0187500), wk =   0.0099502
        k(  200) = (   0.0187500   0.0093750   0.0093750), wk =   0.0099502
        k(  201) = (   0.0000000   0.0000000   0.0000000), wk =   0.0099502

     Dense  grid:    28763 G-vectors     FFT dimensions: (  45,  45,  45)

     Smooth grid:    10081 G-vectors     FFT dimensions: (  32,  32,  32)

     Dynamical RAM for                 wfc:       0.25 MB

     Dynamical RAM for     wfc (w. buffer):       0.25 MB

     Dynamical RAM for           str. fact:       0.88 MB

     Dynamical RAM for           local pot:       0.00 MB

     Dynamical RAM for          nlocal pot:       0.50 MB

     Dynamical RAM for                qrad:       2.87 MB

     Dynamical RAM for          rho,v,vnew:       3.40 MB

     Dynamical RAM for           G-vectors:       1.72 MB

     Dynamical RAM for          h,s,v(r/c):       0.03 MB

     Dynamical RAM for          <psi|beta>:       0.01 MB

     Dynamical RAM for                 psi:       0.50 MB

     Dynamical RAM for                hpsi:       0.50 MB

     Dynamical RAM for                spsi:       0.50 MB

     Dynamical RAM for      wfcinit/wfcrot:       0.51 MB

     Dynamical RAM for           addusdens:      82.07 MB

     Estimated static dynamical RAM per process >      14.42 MB

     Estimated max dynamical RAM per process >      96.49 MB

     The potential is recalculated from file :
     ./SCRATCH/gallium arsenide.save/charge-density

     Starting wfcs are   13 randomized atomic wfcs

     Band Structure Calculation
     Davidson diagonalization with overlap

     Computing kpt #:     1  of   201
     total cpu time spent up to now is        0.8 secs

     Computing kpt #:     2  of   201
     total cpu time spent up to now is        1.0 secs

     Computing kpt #:     3  of   201
     total cpu time spent up to now is        1.2 secs

     Computing kpt #:     4  of   201
     total cpu time spent up to now is        1.4 secs

     Computing kpt #:     5  of   201
     total cpu time spent up to now is        1.5 secs

     Computing kpt #:     6  of   201
     total cpu time spent up to now is        1.7 secs

     Computing kpt #:     7  of   201
     total cpu time spent up to now is        1.9 secs

     Computing kpt #:     8  of   201
     total cpu time spent up to now is        2.1 secs

     Computing kpt #:     9  of   201
     total cpu time spent up to now is        2.2 secs

     Computing kpt #:    10  of   201
     total cpu time spent up to now is        2.4 secs

     Computing kpt #:    11  of   201
     total cpu time spent up to now is        2.6 secs

     Computing kpt #:    12  of   201
     total cpu time spent up to now is        2.8 secs

     Computing kpt #:    13  of   201
     total cpu time spent up to now is        2.9 secs

     Computing kpt #:    14  of   201
     total cpu time spent up to now is        3.1 secs

     Computing kpt #:    15  of   201
     total cpu time spent up to now is        3.3 secs

     Computing kpt #:    16  of   201
     total cpu time spent up to now is        3.5 secs

     Computing kpt #:    17  of   201
     total cpu time spent up to now is        3.6 secs

     Computing kpt #:    18  of   201
     total cpu time spent up to now is        3.8 secs

     Computing kpt #:    19  of   201
     total cpu time spent up to now is        4.0 secs

     Computing kpt #:    20  of   201
     total cpu time spent up to now is        4.1 secs

     Computing kpt #:    21  of   201
     total cpu time spent up to now is        4.3 secs

     Computing kpt #:    22  of   201
     total cpu time spent up to now is        4.5 secs

     Computing kpt #:    23  of   201
     total cpu time spent up to now is        4.6 secs

     Computing kpt #:    24  of   201
     total cpu time spent up to now is        4.8 secs

     Computing kpt #:    25  of   201
     total cpu time spent up to now is        5.0 secs

     Computing kpt #:    26  of   201
     total cpu time spent up to now is        5.1 secs

     Computing kpt #:    27  of   201
     total cpu time spent up to now is        5.3 secs

     Computing kpt #:    28  of   201
     total cpu time spent up to now is        5.4 secs

     Computing kpt #:    29  of   201
     total cpu time spent up to now is        5.6 secs

     Computing kpt #:    30  of   201
     total cpu time spent up to now is        5.7 secs

     Computing kpt #:    31  of   201
     total cpu time spent up to now is        5.9 secs

     Computing kpt #:    32  of   201
     total cpu time spent up to now is        6.0 secs

     Computing kpt #:    33  of   201
     total cpu time spent up to now is        6.2 secs

     Computing kpt #:    34  of   201
     total cpu time spent up to now is        6.3 secs

     Computing kpt #:    35  of   201
     total cpu time spent up to now is        6.4 secs

     Computing kpt #:    36  of   201
     total cpu time spent up to now is        6.6 secs

     Computing kpt #:    37  of   201
     total cpu time spent up to now is        6.7 secs

     Computing kpt #:    38  of   201
     total cpu time spent up to now is        6.9 secs

     Computing kpt #:    39  of   201
     total cpu time spent up to now is        7.0 secs

     Computing kpt #:    40  of   201
     total cpu time spent up to now is        7.1 secs

     Computing kpt #:    41  of   201
     total cpu time spent up to now is        7.3 secs

     Computing kpt #:    42  of   201
     total cpu time spent up to now is        7.4 secs

     Computing kpt #:    43  of   201
     total cpu time spent up to now is        7.6 secs

     Computing kpt #:    44  of   201
     total cpu time spent up to now is        7.7 secs

     Computing kpt #:    45  of   201
     total cpu time spent up to now is        7.9 secs

     Computing kpt #:    46  of   201
     total cpu time spent up to now is        8.0 secs

     Computing kpt #:    47  of   201
     total cpu time spent up to now is        8.1 secs

     Computing kpt #:    48  of   201
     total cpu time spent up to now is        8.3 secs

     Computing kpt #:    49  of   201
     total cpu time spent up to now is        8.4 secs

     Computing kpt #:    50  of   201
     total cpu time spent up to now is        8.6 secs

     Computing kpt #:    51  of   201
     total cpu time spent up to now is        8.7 secs

     Computing kpt #:    52  of   201
     total cpu time spent up to now is        8.9 secs

     Computing kpt #:    53  of   201
     total cpu time spent up to now is        9.0 secs

     Computing kpt #:    54  of   201
     total cpu time spent up to now is        9.2 secs

     Computing kpt #:    55  of   201
     total cpu time spent up to now is        9.3 secs

     Computing kpt #:    56  of   201
     total cpu time spent up to now is        9.4 secs

     Computing kpt #:    57  of   201
     total cpu time spent up to now is        9.6 secs

     Computing kpt #:    58  of   201
     total cpu time spent up to now is        9.7 secs

     Computing kpt #:    59  of   201
     total cpu time spent up to now is        9.9 secs

     Computing kpt #:    60  of   201
     total cpu time spent up to now is       10.0 secs

     Computing kpt #:    61  of   201
     total cpu time spent up to now is       10.2 secs

     Computing kpt #:    62  of   201
     total cpu time spent up to now is       10.3 secs

     Computing kpt #:    63  of   201
     total cpu time spent up to now is       10.5 secs

     Computing kpt #:    64  of   201
     total cpu time spent up to now is       10.7 secs

     Computing kpt #:    65  of   201
     total cpu time spent up to now is       10.9 secs

     Computing kpt #:    66  of   201
     total cpu time spent up to now is       11.0 secs

     Computing kpt #:    67  of   201
     total cpu time spent up to now is       11.2 secs

     Computing kpt #:    68  of   201
     total cpu time spent up to now is       11.4 secs

     Computing kpt #:    69  of   201
     total cpu time spent up to now is       11.5 secs

     Computing kpt #:    70  of   201
     total cpu time spent up to now is       11.7 secs

     Computing kpt #:    71  of   201
     total cpu time spent up to now is       11.9 secs

     Computing kpt #:    72  of   201
     total cpu time spent up to now is       12.1 secs

     Computing kpt #:    73  of   201
     total cpu time spent up to now is       12.2 secs

     Computing kpt #:    74  of   201
     total cpu time spent up to now is       12.4 secs

     Computing kpt #:    75  of   201
     total cpu time spent up to now is       12.6 secs

     Computing kpt #:    76  of   201
     total cpu time spent up to now is       12.7 secs

     Computing kpt #:    77  of   201
     total cpu time spent up to now is       12.9 secs

     Computing kpt #:    78  of   201
     total cpu time spent up to now is       13.1 secs

     Computing kpt #:    79  of   201
     total cpu time spent up to now is       13.3 secs

     Computing kpt #:    80  of   201
     total cpu time spent up to now is       13.4 secs

     Computing kpt #:    81  of   201
     total cpu time spent up to now is       13.6 secs

     Computing kpt #:    82  of   201
     total cpu time spent up to now is       13.8 secs

     Computing kpt #:    83  of   201
     total cpu time spent up to now is       13.9 secs

     Computing kpt #:    84  of   201
     total cpu time spent up to now is       14.1 secs

     Computing kpt #:    85  of   201
     total cpu time spent up to now is       14.3 secs

     Computing kpt #:    86  of   201
     total cpu time spent up to now is       14.4 secs

     Computing kpt #:    87  of   201
     total cpu time spent up to now is       14.6 secs

     Computing kpt #:    88  of   201
     total cpu time spent up to now is       14.8 secs

     Computing kpt #:    89  of   201
     total cpu time spent up to now is       14.9 secs

     Computing kpt #:    90  of   201
     total cpu time spent up to now is       15.1 secs

     Computing kpt #:    91  of   201
     total cpu time spent up to now is       15.3 secs

     Computing kpt #:    92  of   201
     total cpu time spent up to now is       15.4 secs

     Computing kpt #:    93  of   201
     total cpu time spent up to now is       15.6 secs

     Computing kpt #:    94  of   201
     total cpu time spent up to now is       15.8 secs

     Computing kpt #:    95  of   201
     total cpu time spent up to now is       16.0 secs

     Computing kpt #:    96  of   201
     total cpu time spent up to now is       16.1 secs

     Computing kpt #:    97  of   201
     total cpu time spent up to now is       16.3 secs

     Computing kpt #:    98  of   201
     total cpu time spent up to now is       16.5 secs

     Computing kpt #:    99  of   201
     total cpu time spent up to now is       16.7 secs

     Computing kpt #:   100  of   201
     total cpu time spent up to now is       16.9 secs

     Computing kpt #:   101  of   201
     total cpu time spent up to now is       17.1 secs

     Computing kpt #:   102  of   201
     total cpu time spent up to now is       17.3 secs

     Computing kpt #:   103  of   201
     total cpu time spent up to now is       17.5 secs

     Computing kpt #:   104  of   201
     total cpu time spent up to now is       17.7 secs

     Computing kpt #:   105  of   201
     total cpu time spent up to now is       17.9 secs

     Computing kpt #:   106  of   201
     total cpu time spent up to now is       18.1 secs

     Computing kpt #:   107  of   201
     total cpu time spent up to now is       18.2 secs

     Computing kpt #:   108  of   201
     total cpu time spent up to now is       18.4 secs

     Computing kpt #:   109  of   201
     total cpu time spent up to now is       18.6 secs

     Computing kpt #:   110  of   201
     total cpu time spent up to now is       18.8 secs

     Computing kpt #:   111  of   201
     total cpu time spent up to now is       19.0 secs

     Computing kpt #:   112  of   201
     total cpu time spent up to now is       19.2 secs

     Computing kpt #:   113  of   201
     total cpu time spent up to now is       19.3 secs

     Computing kpt #:   114  of   201
     total cpu time spent up to now is       19.5 secs

     Computing kpt #:   115  of   201
     total cpu time spent up to now is       19.7 secs

     Computing kpt #:   116  of   201
     total cpu time spent up to now is       19.9 secs

     Computing kpt #:   117  of   201
     total cpu time spent up to now is       20.0 secs

     Computing kpt #:   118  of   201
     total cpu time spent up to now is       20.2 secs

     Computing kpt #:   119  of   201
     total cpu time spent up to now is       20.4 secs

     Computing kpt #:   120  of   201
     total cpu time spent up to now is       20.5 secs

     Computing kpt #:   121  of   201
     total cpu time spent up to now is       20.7 secs

     Computing kpt #:   122  of   201
     total cpu time spent up to now is       20.9 secs

     Computing kpt #:   123  of   201
     total cpu time spent up to now is       21.0 secs

     Computing kpt #:   124  of   201
     total cpu time spent up to now is       21.2 secs

     Computing kpt #:   125  of   201
     total cpu time spent up to now is       21.4 secs

     Computing kpt #:   126  of   201
     total cpu time spent up to now is       21.5 secs

     Computing kpt #:   127  of   201
     total cpu time spent up to now is       21.7 secs

     Computing kpt #:   128  of   201
     total cpu time spent up to now is       21.8 secs

     Computing kpt #:   129  of   201
     total cpu time spent up to now is       22.0 secs

     Computing kpt #:   130  of   201
     total cpu time spent up to now is       22.2 secs

     Computing kpt #:   131  of   201
     total cpu time spent up to now is       22.4 secs

     Computing kpt #:   132  of   201
     total cpu time spent up to now is       22.5 secs

     Computing kpt #:   133  of   201
     total cpu time spent up to now is       22.7 secs

     Computing kpt #:   134  of   201
     total cpu time spent up to now is       22.9 secs

     Computing kpt #:   135  of   201
     total cpu time spent up to now is       23.0 secs

     Computing kpt #:   136  of   201
     total cpu time spent up to now is       23.2 secs

     Computing kpt #:   137  of   201
     total cpu time spent up to now is       23.4 secs

     Computing kpt #:   138  of   201
     total cpu time spent up to now is       23.6 secs

     Computing kpt #:   139  of   201
     total cpu time spent up to now is       23.7 secs

     Computing kpt #:   140  of   201
     total cpu time spent up to now is       23.9 secs

     Computing kpt #:   141  of   201
     total cpu time spent up to now is       24.1 secs

     Computing kpt #:   142  of   201
     total cpu time spent up to now is       24.3 secs

     Computing kpt #:   143  of   201
     total cpu time spent up to now is       24.4 secs

     Computing kpt #:   144  of   201
     total cpu time spent up to now is       24.6 secs

     Computing kpt #:   145  of   201
     total cpu time spent up to now is       24.8 secs

     Computing kpt #:   146  of   201
     total cpu time spent up to now is       25.0 secs

     Computing kpt #:   147  of   201
     total cpu time spent up to now is       25.2 secs

     Computing kpt #:   148  of   201
     total cpu time spent up to now is       25.4 secs

     Computing kpt #:   149  of   201
     total cpu time spent up to now is       25.5 secs

     Computing kpt #:   150  of   201
     total cpu time spent up to now is       25.7 secs

     Computing kpt #:   151  of   201
     total cpu time spent up to now is       25.9 secs

     Computing kpt #:   152  of   201
     total cpu time spent up to now is       26.1 secs

     Computing kpt #:   153  of   201
     total cpu time spent up to now is       26.3 secs

     Computing kpt #:   154  of   201
     total cpu time spent up to now is       26.4 secs

     Computing kpt #:   155  of   201
     total cpu time spent up to now is       26.6 secs

     Computing kpt #:   156  of   201
     total cpu time spent up to now is       26.8 secs

     Computing kpt #:   157  of   201
     total cpu time spent up to now is       27.0 secs

     Computing kpt #:   158  of   201
     total cpu time spent up to now is       27.2 secs

     Computing kpt #:   159  of   201
     total cpu time spent up to now is       27.4 secs

     Computing kpt #:   160  of   201
     total cpu time spent up to now is       27.6 secs

     Computing kpt #:   161  of   201
     total cpu time spent up to now is       27.8 secs

     Computing kpt #:   162  of   201
     total cpu time spent up to now is       27.9 secs

     Computing kpt #:   163  of   201
     total cpu time spent up to now is       28.1 secs

     Computing kpt #:   164  of   201
     total cpu time spent up to now is       28.3 secs

     Computing kpt #:   165  of   201
     total cpu time spent up to now is       28.5 secs

     Computing kpt #:   166  of   201
     total cpu time spent up to now is       28.7 secs

     Computing kpt #:   167  of   201
     total cpu time spent up to now is       28.9 secs

     Computing kpt #:   168  of   201
     total cpu time spent up to now is       29.1 secs

     Computing kpt #:   169  of   201
     total cpu time spent up to now is       29.3 secs

     Computing kpt #:   170  of   201
     total cpu time spent up to now is       29.4 secs

     Computing kpt #:   171  of   201
     total cpu time spent up to now is       29.6 secs

     Computing kpt #:   172  of   201
     total cpu time spent up to now is       29.8 secs

     Computing kpt #:   173  of   201
     total cpu time spent up to now is       29.9 secs

     Computing kpt #:   174  of   201
     total cpu time spent up to now is       30.1 secs

     Computing kpt #:   175  of   201
     total cpu time spent up to now is       30.2 secs

     Computing kpt #:   176  of   201
     total cpu time spent up to now is       30.4 secs

     Computing kpt #:   177  of   201
     total cpu time spent up to now is       30.5 secs

     Computing kpt #:   178  of   201
     total cpu time spent up to now is       30.7 secs

     Computing kpt #:   179  of   201
     total cpu time spent up to now is       30.8 secs

     Computing kpt #:   180  of   201
     total cpu time spent up to now is       31.0 secs

     Computing kpt #:   181  of   201
     total cpu time spent up to now is       31.1 secs

     Computing kpt #:   182  of   201
     total cpu time spent up to now is       31.3 secs

     Computing kpt #:   183  of   201
     total cpu time spent up to now is       31.5 secs

     Computing kpt #:   184  of   201
     total cpu time spent up to now is       31.6 secs

     Computing kpt #:   185  of   201
     total cpu time spent up to now is       31.8 secs

     Computing kpt #:   186  of   201
     total cpu time spent up to now is       31.9 secs

     Computing kpt #:   187  of   201
     total cpu time spent up to now is       32.1 secs

     Computing kpt #:   188  of   201
     total cpu time spent up to now is       32.2 secs

     Computing kpt #:   189  of   201
     total cpu time spent up to now is       32.4 secs

     Computing kpt #:   190  of   201
     total cpu time spent up to now is       32.5 secs

     Computing kpt #:   191  of   201
     total cpu time spent up to now is       32.6 secs

     Computing kpt #:   192  of   201
     total cpu time spent up to now is       32.8 secs

     Computing kpt #:   193  of   201
     total cpu time spent up to now is       32.9 secs

     Computing kpt #:   194  of   201
     total cpu time spent up to now is       33.1 secs

     Computing kpt #:   195  of   201
     total cpu time spent up to now is       33.2 secs

     Computing kpt #:   196  of   201
     total cpu time spent up to now is       33.4 secs

     Computing kpt #:   197  of   201
     total cpu time spent up to now is       33.5 secs

     Computing kpt #:   198  of   201
     total cpu time spent up to now is       33.7 secs

     Computing kpt #:   199  of   201
     total cpu time spent up to now is       33.8 secs

     Computing kpt #:   200  of   201
     total cpu time spent up to now is       33.9 secs

     Computing kpt #:   201  of   201
     total cpu time spent up to now is       34.1 secs

     ethr =  5.56E-11,  avg # of iterations = 23.8

     total cpu time spent up to now is       34.1 secs

     End of band structure calculation

          k = 0.0000 0.0000 1.0000 (  1266 PWs)   bands (ev):

    -8.2725  -8.0991  -8.0991  -8.0963  -8.0527  -3.5848  -0.2277   3.9993
     3.9993   8.0718   8.3072  17.0668  17.0668

          k = 0.0000 0.0000 0.9750 (  1278 PWs)   bands (ev):

    -8.2723  -8.0994  -8.0994  -8.0963  -8.0528  -3.5934  -0.2161   4.0020
     4.0020   8.0679   8.3179  17.0446  17.0446

          k = 0.0000 0.0000 0.9500 (  1274 PWs)   bands (ev):

    -8.2720  -8.0996  -8.0996  -8.0961  -8.0528  -3.6188  -0.1817   4.0100
     4.0100   8.0584   8.3479  16.9800  16.9800

          k = 0.0000 0.0000 0.9250 (  1274 PWs)   bands (ev):

    -8.2713  -8.1000  -8.1000  -8.0958  -8.0529  -3.6598  -0.1256   4.0233
     4.0233   8.0474   8.3928  16.8781  16.8781

          k = 0.0000 0.0000 0.9000 (  1274 PWs)   bands (ev):

    -8.2704  -8.1006  -8.1006  -8.0955  -8.0531  -3.7150  -0.0494   4.0420
     4.0420   8.0384   8.4494  16.7455  16.7455

          k = 0.0000 0.0000 0.8750 (  1266 PWs)   bands (ev):

    -8.2691  -8.1013  -8.1013  -8.0950  -8.0531  -3.7823   0.0450   4.0660
     4.0660   8.0332   8.5155  16.5889  16.5889

          k = 0.0000 0.0000 0.8500 (  1266 PWs)   bands (ev):

    -8.2676  -8.1022  -8.1022  -8.0945  -8.0534  -3.8599   0.1555   4.0952
     4.0952   8.0330   8.5898  16.4141  16.4141

          k = 0.0000 0.0000 0.8250 (  1266 PWs)   bands (ev):

    -8.2658  -8.1033  -8.1033  -8.0939  -8.0536  -3.9456   0.2802   4.1296
     4.1296   8.0382   8.6716  16.2258  16.2258

          k = 0.0000 0.0000 0.8000 (  1262 PWs)   bands (ev):

    -8.2638  -8.1045  -8.1045  -8.0929  -8.0540  -4.0378   0.4172   4.1693
     4.1693   8.0492   8.7602  16.0276  16.0276

          k = 0.0000 0.0000 0.7750 (  1266 PWs)   bands (ev):

    -8.2615  -8.1059  -8.1059  -8.0923  -8.0544  -4.1348   0.5648   4.2140
     4.2140   8.0662   8.8550  15.8223  15.8223

          k = 0.0000 0.0000 0.7500 (  1274 PWs)   bands (ev):

    -8.2589  -8.1075  -8.1075  -8.0914  -8.0549  -4.2352   0.7217   4.2638
     4.2638   8.0892   8.9554  15.6118  15.6118

          k = 0.0000 0.0000 0.7250 (  1274 PWs)   bands (ev):

    -8.2562  -8.1091  -8.1091  -8.0905  -8.0553  -4.3379   0.8866   4.3186
     4.3186   8.1183   9.0609  15.3978  15.3978

          k = 0.0000 0.0000 0.7000 (  1266 PWs)   bands (ev):

    -8.2530  -8.1107  -8.1107  -8.0895  -8.0558  -4.4417   1.0584   4.3783
     4.3783   8.1535   9.1705  15.1815  15.1815

          k = 0.0000 0.0000 0.6750 (  1266 PWs)   bands (ev):

    -8.2498  -8.1125  -8.1125  -8.0885  -8.0563  -4.5458   1.2362   4.4428
     4.4428   8.1946   9.2832  14.9635  14.9635

          k = 0.0000 0.0000 0.6500 (  1267 PWs)   bands (ev):

    -8.2463  -8.1144  -8.1144  -8.0875  -8.0568  -4.6496   1.4193   4.5120
     4.5120   8.2416   9.3979  14.7448  14.7448

          k = 0.0000 0.0000 0.6250 (  1267 PWs)   bands (ev):

    -8.2427  -8.1163  -8.1163  -8.0864  -8.0573  -4.7524   1.6071   4.5859
     4.5859   8.2945   9.5129  14.5258  14.5258

          k = 0.0000 0.0000 0.6000 (  1275 PWs)   bands (ev):

    -8.2389  -8.1184  -8.1184  -8.0853  -8.0581  -4.8536   1.7989   4.6641
     4.6641   8.3530   9.6263  14.3069  14.3069

          k = 0.0000 0.0000 0.5750 (  1283 PWs)   bands (ev):

    -8.2349  -8.1206  -8.1206  -8.0843  -8.0587  -4.9529   1.9944   4.7467
     4.7467   8.4171   9.7355  14.0886  14.0886

          k = 0.0000 0.0000 0.5500 (  1283 PWs)   bands (ev):

    -8.2307  -8.1227  -8.1227  -8.0831  -8.0593  -5.0499   2.1931   4.8335
     4.8335   8.4866   9.8375  13.8712  13.8712

          k = 0.0000 0.0000 0.5250 (  1283 PWs)   bands (ev):

    -8.2264  -8.1248  -8.1248  -8.0820  -8.0599  -5.1441   2.3947   4.9242
     4.9242   8.5612   9.9285  13.6551  13.6551

          k = 0.0000 0.0000 0.5000 (  1283 PWs)   bands (ev):

    -8.2219  -8.1269  -8.1269  -8.0808  -8.0605  -5.2355   2.5989   5.0186
     5.0186   8.6406  10.0041  13.4405  13.4405

          k = 0.0000 0.0000 0.4750 (  1283 PWs)   bands (ev):

    -8.2174  -8.1290  -8.1290  -8.0797  -8.0611  -5.3236   2.8054   5.1166
     5.1166   8.7246  10.0599  13.2277  13.2277

          k = 0.0000 0.0000 0.4500 (  1299 PWs)   bands (ev):

    -8.2129  -8.1312  -8.1312  -8.0788  -8.0617  -5.4083   3.0141   5.2177
     5.2177   8.8127  10.0912  13.0171  13.0171

          k = 0.0000 0.0000 0.4250 (  1295 PWs)   bands (ev):

    -8.2082  -8.1333  -8.1333  -8.0775  -8.0623  -5.4894   3.2247   5.3218
     5.3218   8.9041  10.0945  12.8091  12.8091

          k = 0.0000 0.0000 0.4000 (  1295 PWs)   bands (ev):

    -8.2035  -8.1353  -8.1353  -8.0765  -8.0629  -5.5668   3.4372   5.4285
     5.4285   8.9980  10.0681  12.6041  12.6041

          k = 0.0000 0.0000 0.3750 (  1295 PWs)   bands (ev):

    -8.1988  -8.1372  -8.1372  -8.0755  -8.0634  -5.6402   3.6513   5.5372
     5.5372   9.0925  10.0128  12.4026  12.4026

          k = 0.0000 0.0000 0.3500 (  1303 PWs)   bands (ev):

    -8.1941  -8.1392  -8.1392  -8.0747  -8.0640  -5.7095   3.8671   5.6476
     5.6476   9.1843   9.9332  12.2050  12.2050

          k = 0.0000 0.0000 0.3250 (  1303 PWs)   bands (ev):

    -8.1895  -8.1410  -8.1410  -8.0738  -8.0645  -5.7746   4.0842   5.7591
     5.7591   9.2651   9.8399  12.0121  12.0121

          k = 0.0000 0.0000 0.3000 (  1283 PWs)   bands (ev):

    -8.1847  -8.1425  -8.1425  -8.0727  -8.0649  -5.8354   4.3028   5.8709
     5.8709   9.3128   9.7584  11.8246  11.8246

          k = 0.0000 0.0000 0.2750 (  1287 PWs)   bands (ev):

    -8.1804  -8.1441  -8.1441  -8.0721  -8.0654  -5.8918   4.5226   5.9823
     5.9823   9.2839   9.7351  11.6433  11.6433

          k = 0.0000 0.0000 0.2500 (  1287 PWs)   bands (ev):

    -8.1762  -8.1456  -8.1456  -8.0714  -8.0658  -5.9436   4.7435   6.0924
     6.0924   9.1691   9.7823  11.4691  11.4691

          k = 0.0000 0.0000 0.2250 (  1279 PWs)   bands (ev):

    -8.1720  -8.1470  -8.1470  -8.0707  -8.0661  -5.9908   4.9655   6.2000
     6.2000   9.0060   9.8646  11.3034  11.3034

          k = 0.0000 0.0000 0.2000 (  1271 PWs)   bands (ev):

    -8.1682  -8.1481  -8.1481  -8.0701  -8.0665  -6.0332   5.1883   6.3039
     6.3039   8.8189   9.9589  11.1473  11.1473

          k = 0.0000 0.0000 0.1750 (  1271 PWs)   bands (ev):

    -8.1648  -8.1492  -8.1492  -8.0696  -8.0668  -6.0709   5.4118   6.4025
     6.4025   8.6183  10.0554  11.0025  11.0025

          k = 0.0000 0.0000 0.1500 (  1271 PWs)   bands (ev):

    -8.1617  -8.1502  -8.1502  -8.0692  -8.0671  -6.1037   5.6356   6.4941
     6.4941   8.4095  10.1490  10.8707  10.8707

          k = 0.0000 0.0000 0.1250 (  1255 PWs)   bands (ev):

    -8.1590  -8.1508  -8.1508  -8.0688  -8.0672  -6.1316   5.8592   6.5769
     6.5769   8.1955  10.2361  10.7540  10.7540

          k = 0.0000 0.0000 0.1000 (  1251 PWs)   bands (ev):

    -8.1567  -8.1514  -8.1514  -8.0684  -8.0674  -6.1545   6.0815   6.6486
     6.6486   7.9793  10.3133  10.6543  10.6543

          k = 0.0000 0.0000 0.0750 (  1243 PWs)   bands (ev):

    -8.1549  -8.1519  -8.1519  -8.0681  -8.0676  -6.1724   6.3007   6.7073
     6.7073   7.7639  10.3775  10.5739  10.5739

          k = 0.0000 0.0000 0.0500 (  1243 PWs)   bands (ev):

    -8.1536  -8.1523  -8.1523  -8.0679  -8.0677  -6.1851   6.5114   6.7510
     6.7510   7.5553  10.4259  10.5147  10.5147

          k = 0.0000 0.0000 0.0250 (  1243 PWs)   bands (ev):

    -8.1528  -8.1525  -8.1525  -8.0678  -8.0678  -6.1928   6.6963   6.7779
     6.7779   7.3715  10.4560  10.4784  10.4784

          k = 0.0000 0.0000 0.0000 (  1243 PWs)   bands (ev):

    -8.1526  -8.1526  -8.1526  -8.0678  -8.0678  -6.1954   6.7870   6.7870
     6.7870   7.2811  10.4662  10.4662  10.4662

          k =-0.0125 0.0125 0.0125 (  1243 PWs)   bands (ev):

    -8.1527  -8.1525  -8.1525  -8.0678  -8.0678  -6.1935   6.7097   6.7841
     6.7841   7.3503  10.4683  10.4705  10.4705

          k =-0.0250 0.0250 0.0250 (  1243 PWs)   bands (ev):

    -8.1532  -8.1524  -8.1524  -8.0678  -8.0678  -6.1877   6.5423   6.7754
     6.7754   7.4930  10.4751  10.4833  10.4833

          k =-0.0375 0.0375 0.0375 (  1243 PWs)   bands (ev):

    -8.1540  -8.1522  -8.1522  -8.0678  -8.0678  -6.1781   6.3431   6.7612
     6.7612   7.6501  10.4880  10.5043  10.5043

          k =-0.0500 0.0500 0.0500 (  1249 PWs)   bands (ev):

    -8.1553  -8.1519  -8.1519  -8.0679  -8.0679  -6.1647   6.1301   6.7417
     6.7417   7.8026  10.5092  10.5331  10.5331

          k =-0.0625 0.0625 0.0625 (  1249 PWs)   bands (ev):

    -8.1567  -8.1516  -8.1516  -8.0679  -8.0679  -6.1475   5.9095   6.7172
     6.7172   7.9427  10.5412  10.5692  10.5692

          k =-0.0750 0.0750 0.0750 (  1261 PWs)   bands (ev):

    -8.1586  -8.1512  -8.1512  -8.0680  -8.0680  -6.1266   5.6841   6.6883
     6.6883   8.0662  10.5869  10.6118  10.6118

          k =-0.0875 0.0875 0.0875 (  1267 PWs)   bands (ev):

    -8.1606  -8.1508  -8.1508  -8.0681  -8.0681  -6.1020   5.4556   6.6553
     6.6553   8.1703  10.6489  10.6601  10.6601

          k =-0.1000 0.1000 0.1000 (  1267 PWs)   bands (ev):

    -8.1628  -8.1502  -8.1502  -8.0681  -8.0681  -6.0737   5.2251   6.6189
     6.6189   8.2536  10.7133  10.7133  10.7290

          k =-0.1125 0.1125 0.1125 (  1273 PWs)   bands (ev):

    -8.1653  -8.1496  -8.1496  -8.0682  -8.0682  -6.0418   4.9935   6.5794
     6.5794   8.3157  10.7703  10.7703  10.8279

          k =-0.1250 0.1250 0.1250 (  1279 PWs)   bands (ev):

    -8.1679  -8.1491  -8.1491  -8.0682  -8.0682  -6.0063   4.7615   6.5375
     6.5375   8.3578  10.8302  10.8302  10.9454

          k =-0.1375 0.1375 0.1375 (  1279 PWs)   bands (ev):

    -8.1707  -8.1483  -8.1483  -8.0682  -8.0682  -5.9674   4.5296   6.4937
     6.4937   8.3818  10.8919  10.8919  11.0799

          k =-0.1500 0.1500 0.1500 (  1279 PWs)   bands (ev):

    -8.1737  -8.1476  -8.1476  -8.0682  -8.0682  -5.9251   4.2984   6.4483
     6.4483   8.3902  10.9542  10.9542  11.2296

          k =-0.1625 0.1625 0.1625 (  1278 PWs)   bands (ev):

    -8.1767  -8.1468  -8.1468  -8.0682  -8.0682  -5.8795   4.0683   6.4019
     6.4019   8.3857  11.0162  11.0162  11.3924

          k =-0.1750 0.1750 0.1750 (  1278 PWs)   bands (ev):

    -8.1799  -8.1459  -8.1459  -8.0681  -8.0681  -5.8307   3.8398   6.3547
     6.3547   8.3709  11.0768  11.0768  11.5661

          k =-0.1875 0.1875 0.1875 (  1278 PWs)   bands (ev):

    -8.1832  -8.1451  -8.1451  -8.0681  -8.0681  -5.7788   3.6132   6.3073
     6.3073   8.3481  11.1349  11.1349  11.7486

          k =-0.2000 0.2000 0.2000 (  1272 PWs)   bands (ev):

    -8.1864  -8.1442  -8.1442  -8.0679  -8.0679  -5.7240   3.3891   6.2600
     6.2600   8.3193  11.1896  11.1896  11.9385

          k =-0.2125 0.2125 0.2125 (  1290 PWs)   bands (ev):

    -8.1899  -8.1435  -8.1435  -8.0680  -8.0680  -5.6663   3.1676   6.2129
     6.2129   8.2861  11.2400  11.2400  12.1340

          k =-0.2250 0.2250 0.2250 (  1284 PWs)   bands (ev):

    -8.1932  -8.1426  -8.1426  -8.0678  -8.0678  -5.6060   2.9492   6.1665
     6.1665   8.2500  11.2856  11.2856  12.3339

          k =-0.2375 0.2375 0.2375 (  1284 PWs)   bands (ev):

    -8.1966  -8.1417  -8.1417  -8.0677  -8.0677  -5.5431   2.7343   6.1210
     6.1210   8.2119  11.3258  11.3258  12.5371

          k =-0.2500 0.2500 0.2500 (  1278 PWs)   bands (ev):

    -8.1999  -8.1408  -8.1408  -8.0674  -8.0674  -5.4779   2.5232   6.0765
     6.0765   8.1727  11.3602  11.3602  12.7422

          k =-0.2625 0.2625 0.2625 (  1281 PWs)   bands (ev):

    -8.2033  -8.1400  -8.1400  -8.0673  -8.0673  -5.4107   2.3163   6.0332
     6.0332   8.1332  11.3888  11.3888  12.9481

          k =-0.2750 0.2750 0.2750 (  1275 PWs)   bands (ev):

    -8.2066  -8.1392  -8.1392  -8.0669  -8.0669  -5.3416   2.1140   5.9915
     5.9915   8.0940  11.4115  11.4115  13.1532

          k =-0.2875 0.2875 0.2875 (  1281 PWs)   bands (ev):

    -8.2097  -8.1384  -8.1384  -8.0668  -8.0668  -5.2709   1.9167   5.9513
     5.9513   8.0554  11.4287  11.4287  13.3557

          k =-0.3000 0.3000 0.3000 (  1272 PWs)   bands (ev):

    -8.2126  -8.1377  -8.1377  -8.0665  -8.0665  -5.1990   1.7248   5.9128
     5.9128   8.0180  11.4407  11.4407  13.5529

          k =-0.3125 0.3125 0.3125 (  1272 PWs)   bands (ev):

    -8.2156  -8.1370  -8.1370  -8.0662  -8.0662  -5.1263   1.5389   5.8762
     5.8762   7.9819  11.4480  11.4480  13.7415

          k =-0.3250 0.3250 0.3250 (  1272 PWs)   bands (ev):

    -8.2184  -8.1363  -8.1363  -8.0659  -8.0659  -5.0531   1.3594   5.8416
     5.8416   7.9474  11.4512  11.4512  13.9168

          k =-0.3375 0.3375 0.3375 (  1272 PWs)   bands (ev):

    -8.2211  -8.1357  -8.1357  -8.0657  -8.0657  -4.9798   1.1869   5.8090
     5.8090   7.9147  11.4509  11.4509  14.0729

          k =-0.3500 0.3500 0.3500 (  1272 PWs)   bands (ev):

    -8.2236  -8.1352  -8.1352  -8.0654  -8.0654  -4.9071   1.0219   5.7785
     5.7785   7.8840  11.4478  11.4478  14.2035

          k =-0.3625 0.3625 0.3625 (  1272 PWs)   bands (ev):

    -8.2259  -8.1347  -8.1347  -8.0651  -8.0651  -4.8356   0.8653   5.7503
     5.7503   7.8554  11.4426  11.4426  14.3042

          k =-0.3750 0.3750 0.3750 (  1272 PWs)   bands (ev):

    -8.2281  -8.1342  -8.1342  -8.0648  -8.0648  -4.7659   0.7176   5.7243
     5.7243   7.8290  11.4357  11.4357  14.3747

          k =-0.3875 0.3875 0.3875 (  1263 PWs)   bands (ev):

    -8.2301  -8.1337  -8.1337  -8.0644  -8.0644  -4.6987   0.5798   5.7006
     5.7006   7.8050  11.4279  11.4279  14.4191

          k =-0.4000 0.4000 0.4000 (  1263 PWs)   bands (ev):

    -8.2319  -8.1334  -8.1334  -8.0641  -8.0641  -4.6349   0.4526   5.6793
     5.6793   7.7833  11.4195  11.4195  14.4439

          k =-0.4125 0.4125 0.4125 (  1263 PWs)   bands (ev):

    -8.2336  -8.1330  -8.1330  -8.0639  -8.0639  -4.5754   0.3371   5.6604
     5.6604   7.7641  11.4111  11.4111  14.4553

          k =-0.4250 0.4250 0.4250 (  1254 PWs)   bands (ev):

    -8.2348  -8.1327  -8.1327  -8.0636  -8.0636  -4.5211   0.2342   5.6440
     5.6440   7.7473  11.4030  11.4030  14.4584

          k =-0.4375 0.4375 0.4375 (  1260 PWs)   bands (ev):

[...]

    -8.2534  -8.1226  -8.1091  -8.0773  -8.0629  -3.7385   0.0927   2.9195
     4.0993  10.4869  11.1288  12.8816  14.0153

          k =-0.5000 0.1375 0.8625 (  1262 PWs)   bands (ev):

    -8.2541  -8.1222  -8.1083  -8.0777  -8.0628  -3.7080   0.0814   2.8978
     4.0152  10.5673  11.1877  12.7824  13.8756

          k =-0.5000 0.1250 0.8750 (  1264 PWs)   bands (ev):

    -8.2547  -8.1218  -8.1075  -8.0781  -8.0628  -3.6788   0.0686   2.8850
     3.9317  10.6471  11.2502  12.6824  13.7379

          k =-0.5000 0.1125 0.8875 (  1256 PWs)   bands (ev):

    -8.2553  -8.1214  -8.1068  -8.0784  -8.0626  -3.6512   0.0547   2.8809
     3.8493  10.7268  11.3153  12.5835  13.6030

          k =-0.5000 0.1000 0.9000 (  1256 PWs)   bands (ev):

    -8.2558  -8.1210  -8.1062  -8.0788  -8.0626  -3.6255   0.0402   2.8851
     3.7682  10.8066  11.3812  12.4876  13.4715

          k =-0.5000 0.0875 0.9125 (  1258 PWs)   bands (ev):

    -8.2563  -8.1207  -8.1057  -8.0791  -8.0625  -3.6020   0.0257   2.8971
     3.6889  10.8867  11.4455  12.3971  13.3442

          k =-0.5000 0.0750 0.9250 (  1258 PWs)   bands (ev):

    -8.2567  -8.1205  -8.1052  -8.0793  -8.0625  -3.5809   0.0117   2.9162
     3.6119  10.9672  11.5044  12.3154  13.2220

          k =-0.5000 0.0625 0.9375 (  1250 PWs)   bands (ev):

    -8.2570  -8.1201  -8.1048  -8.0794  -8.0624  -3.5625  -0.0013   2.9419
     3.5375  11.0482  11.5523  12.2472  13.1061

          k =-0.5000 0.0500 0.9500 (  1248 PWs)   bands (ev):

    -8.2573  -8.1199  -8.1045  -8.0796  -8.0623  -3.5471  -0.0126   2.9733
     3.4667  11.1294  11.5811  12.1993  12.9986

          k =-0.5000 0.0375 0.9625 (  1248 PWs)   bands (ev):

    -8.2576  -8.1198  -8.1042  -8.0797  -8.0623  -3.5349  -0.0219   3.0089
     3.4005  11.2105  11.5831  12.1766  12.9025

          k =-0.5000 0.0250 0.9750 (  1248 PWs)   bands (ev):

    -8.2577  -8.1196  -8.1041  -8.0798  -8.0622  -3.5260  -0.0289   3.0463
     3.3414  11.2906  11.5565  12.1768  12.8233

          k =-0.5000 0.0125 0.9875 (  1254 PWs)   bands (ev):

    -8.2579  -8.1196  -8.1040  -8.0799  -8.0623  -3.5207  -0.0332   3.0795
     3.2952  11.3684  11.5068  12.1875  12.7690

          k =-0.5000 0.0000 1.0000 (  1256 PWs)   bands (ev):

    -8.2579  -8.1196  -8.1040  -8.0799  -8.0623  -3.5189  -0.0346   3.0945
     3.2759  11.4372  11.4466  12.1934  12.7493

          k =-0.5062 0.0000 0.9937 (  1256 PWs)   bands (ev):

    -8.2580  -8.1196  -8.1040  -8.0800  -8.0623  -3.5191  -0.0345   3.0926
     3.2788  11.4069  11.4650  12.2003  12.7557

          k =-0.5125 0.0000 0.9875 (  1256 PWs)   bands (ev):

    -8.2580  -8.1196  -8.1041  -8.0800  -8.0623  -3.5198  -0.0343   3.0872
     3.2874  11.3543  11.4832  12.2210  12.7732

          k =-0.5188 0.0000 0.9813 (  1252 PWs)   bands (ev):

    -8.2579  -8.1195  -8.1040  -8.0800  -8.0622  -3.5210  -0.0339   3.0787
     3.3012  11.2865  11.4976  12.2543  12.8000

          k =-0.5250 0.0000 0.9750 (  1248 PWs)   bands (ev):

    -8.2579  -8.1195  -8.1040  -8.0800  -8.0621  -3.5225  -0.0335   3.0678
     3.3194  11.2072  11.5084  12.2976  12.8345

          k =-0.5312 0.0000 0.9688 (  1248 PWs)   bands (ev):

    -8.2580  -8.1194  -8.1040  -8.0800  -8.0621  -3.5244  -0.0330   3.0553
     3.3412  11.1194  11.5162  12.3487  12.8753

          k =-0.5375 0.0000 0.9625 (  1248 PWs)   bands (ev):

    -8.2580  -8.1194  -8.1040  -8.0801  -8.0620  -3.5267  -0.0324   3.0419
     3.3660  11.0259  11.5213  12.4057  12.9215

          k =-0.5437 0.0000 0.9562 (  1248 PWs)   bands (ev):

    -8.2580  -8.1193  -8.1041  -8.0801  -8.0620  -3.5292  -0.0319   3.0278
     3.3934  10.9285  11.5240  12.4672  12.9721

          k =-0.5500 0.0000 0.9500 (  1248 PWs)   bands (ev):

    -8.2580  -8.1192  -8.1041  -8.0802  -8.0619  -3.5320  -0.0313   3.0134
     3.4229  10.8285  11.5248  12.5323  13.0265

          k =-0.5563 0.0000 0.9438 (  1246 PWs)   bands (ev):

    -8.2580  -8.1191  -8.1041  -8.0803  -8.0618  -3.5351  -0.0308   2.9989
     3.4544  10.7270  11.5240  12.6001  13.0841

          k =-0.5625 0.0000 0.9375 (  1251 PWs)   bands (ev):

    -8.2582  -8.1190  -8.1042  -8.0804  -8.0617  -3.5383  -0.0304   2.9845
     3.4876  10.6246  11.5218  12.6701  13.1443

          k =-0.5687 0.0000 0.9312 (  1259 PWs)   bands (ev):

    -8.2583  -8.1190  -8.1043  -8.0806  -8.0618  -3.5417  -0.0299   2.9702
     3.5223  10.5220  11.5186  12.7421  13.2069

          k =-0.5750 0.0000 0.9250 (  1259 PWs)   bands (ev):

    -8.2583  -8.1188  -8.1044  -8.0807  -8.0617  -3.5453  -0.0296   2.9562
     3.5583  10.4196  11.5144  12.8156  13.2714

          k =-0.5813 0.0000 0.9188 (  1259 PWs)   bands (ev):

    -8.2584  -8.1187  -8.1045  -8.0808  -8.0616  -3.5490  -0.0293   2.9424
     3.5956  10.3178  11.5095  12.8904  13.3375

          k =-0.5875 0.0000 0.9125 (  1259 PWs)   bands (ev):

    -8.2584  -8.1185  -8.1045  -8.0809  -8.0615  -3.5528  -0.0291   2.9290
     3.6339  10.2169  11.5041  12.9664  13.4049

          k =-0.5938 0.0000 0.9062 (  1259 PWs)   bands (ev):

    -8.2585  -8.1184  -8.1046  -8.0810  -8.0614  -3.5566  -0.0289   2.9159
     3.6732  10.1172  11.4982  13.0435  13.4734

          k =-0.6000 0.0000 0.9000 (  1263 PWs)   bands (ev):

    -8.2586  -8.1182  -8.1048  -8.0811  -8.0614  -3.5605  -0.0288   2.9032
     3.7133  10.0188  11.4921  13.1215  13.5428

          k =-0.6062 0.0000 0.8937 (  1260 PWs)   bands (ev):

    -8.2586  -8.1180  -8.1048  -8.0812  -8.0612  -3.5644  -0.0288   2.8910
     3.7540   9.9220  11.4857  13.2003  13.6128

          k =-0.6125 0.0000 0.8875 (  1260 PWs)   bands (ev):

    -8.2587  -8.1178  -8.1049  -8.0814  -8.0611  -3.5683  -0.0289   2.8792
     3.7952   9.8271  11.4792  13.2798  13.6833

          k =-0.6188 0.0000 0.8813 (  1260 PWs)   bands (ev):

    -8.2588  -8.1176  -8.1050  -8.0815  -8.0610  -3.5721  -0.0290   2.8678
     3.8367   9.7341  11.4727  13.3600  13.7540

          k =-0.6250 0.0000 0.8750 (  1259 PWs)   bands (ev):

    -8.2588  -8.1174  -8.1051  -8.0816  -8.0608  -3.5759  -0.0292   2.8569
     3.8784   9.6433  11.4662  13.4407  13.8247

          k =-0.6312 0.0000 0.8687 (  1265 PWs)   bands (ev):

    -8.2590  -8.1173  -8.1052  -8.0817  -8.0608  -3.5797  -0.0294   2.8465
     3.9201   9.5550  11.4598  13.5220  13.8952

          k =-0.6375 0.0000 0.8625 (  1265 PWs)   bands (ev):

    -8.2591  -8.1171  -8.1053  -8.0819  -8.0607  -3.5833  -0.0297   2.8366
     3.9616   9.4692  11.4535  13.6038  13.9654

          k =-0.6438 0.0000 0.8563 (  1265 PWs)   bands (ev):

    -8.2591  -8.1169  -8.1054  -8.0820  -8.0606  -3.5869  -0.0300   2.8272
     4.0028   9.3862  11.4474  13.6859  14.0349

          k =-0.6500 0.0000 0.8500 (  1267 PWs)   bands (ev):

    -8.2592  -8.1167  -8.1056  -8.0821  -8.0605  -3.5903  -0.0304   2.8183
     4.0434   9.3061  11.4415  13.7684  14.1036

          k =-0.6562 0.0000 0.8438 (  1267 PWs)   bands (ev):

    -8.2593  -8.1165  -8.1057  -8.0822  -8.0604  -3.5936  -0.0308   2.8099
     4.0832   9.2293  11.4358  13.8511  14.1712

          k =-0.6625 0.0000 0.8375 (  1267 PWs)   bands (ev):

    -8.2594  -8.1163  -8.1058  -8.0823  -8.0603  -3.5968  -0.0311   2.8020
     4.1220   9.1559  11.4304  13.9339  14.2375

          k =-0.6687 0.0000 0.8312 (  1267 PWs)   bands (ev):

    -8.2594  -8.1161  -8.1059  -8.0824  -8.0602  -3.5998  -0.0316   2.7946
     4.1596   9.0861  11.4253  14.0168  14.3021

          k =-0.6750 0.0000 0.8250 (  1267 PWs)   bands (ev):

    -8.2595  -8.1159  -8.1060  -8.0825  -8.0601  -3.6026  -0.0320   2.7878
     4.1957   9.0202  11.4204  14.0996  14.3647

          k =-0.6813 0.0000 0.8188 (  1267 PWs)   bands (ev):

    -8.2595  -8.1157  -8.1061  -8.0826  -8.0600  -3.6052  -0.0324   2.7815
     4.2302   8.9583  11.4159  14.1822  14.4250

          k =-0.6875 0.0000 0.8125 (  1267 PWs)   bands (ev):

    -8.2596  -8.1156  -8.1062  -8.0827  -8.0600  -3.6076  -0.0328   2.7757
     4.2627   8.9008  11.4118  14.2644  14.4827

          k =-0.6937 0.0000 0.8062 (  1268 PWs)   bands (ev):

    -8.2597  -8.1154  -8.1063  -8.0828  -8.0599  -3.6099  -0.0331   2.7705
     4.2931   8.8479  11.4080  14.3457  14.5374

          k =-0.7000 0.0000 0.8000 (  1270 PWs)   bands (ev):

    -8.2598  -8.1152  -8.1064  -8.0829  -8.0599  -3.6119  -0.0335   2.7658
     4.3210   8.7998  11.4046  14.4258  14.5888

          k =-0.7063 0.0000 0.7938 (  1270 PWs)   bands (ev):

    -8.2598  -8.1151  -8.1065  -8.0830  -8.0598  -3.6137  -0.0338   2.7617
     4.3464   8.7566  11.4015  14.5037  14.6369

          k =-0.7125 0.0000 0.7875 (  1268 PWs)   bands (ev):

    -8.2598  -8.1149  -8.1065  -8.0830  -8.0598  -3.6153  -0.0341   2.7581
     4.3688   8.7188  11.3988  14.5781  14.6821

          k =-0.7188 0.0000 0.7812 (  1268 PWs)   bands (ev):

    -8.2599  -8.1148  -8.1066  -8.0830  -8.0597  -3.6166  -0.0344   2.7550
     4.3882   8.6863  11.3966  14.6453  14.7263

          k =-0.7250 0.0000 0.7750 (  1264 PWs)   bands (ev):

    -8.2599  -8.1147  -8.1066  -8.0831  -8.0596  -3.6177  -0.0346   2.7526
     4.4044   8.6595  11.3947  14.6996  14.7735

          k =-0.7312 0.0000 0.7687 (  1264 PWs)   bands (ev):

    -8.2599  -8.1146  -8.1066  -8.0831  -8.0596  -3.6186  -0.0347   2.7506
     4.4171   8.6385  11.3933  14.7368  14.8247

          k =-0.7375 0.0000 0.7625 (  1260 PWs)   bands (ev):

    -8.2598  -8.1145  -8.1066  -8.0831  -8.0596  -3.6192  -0.0349   2.7492
     4.4263   8.6234  11.3922  14.7602  14.8723

          k =-0.7438 0.0000 0.7563 (  1260 PWs)   bands (ev):

    -8.2598  -8.1145  -8.1066  -8.0831  -8.0595  -3.6195  -0.0349   2.7484
     4.4319   8.6143  11.3916  14.7734  14.9064

          k =-0.7500 0.0000 0.7500 (  1260 PWs)   bands (ev):

    -8.2598  -8.1145  -8.1066  -8.0831  -8.0595  -3.6197  -0.0350   2.7481
     4.4337   8.6112  11.3914  14.7777  14.9190

          k =-0.7312 0.0000 0.7312 (  1258 PWs)   bands (ev):

    -8.2583  -8.1159  -8.1077  -8.0817  -8.0604  -3.6442  -0.0032   2.6941
     4.4982   8.6741  11.7326  14.6287  14.7093

          k =-0.7125 0.0000 0.7125 (  1262 PWs)   bands (ev):

    -8.2567  -8.1173  -8.1090  -8.0802  -8.0613  -3.6754   0.0330   2.6565
     4.5664   8.7399  12.0593  14.5021  14.5084

          k =-0.6937 0.0000 0.6937 (  1278 PWs)   bands (ev):

    -8.2553  -8.1187  -8.1104  -8.0789  -8.0624  -3.7137   0.0745   2.6357
     4.6381   8.8081  12.3552  14.2981  14.4308

          k =-0.6750 0.0000 0.6750 (  1276 PWs)   bands (ev):

    -8.2537  -8.1199  -8.1117  -8.0775  -8.0632  -3.7593   0.1222   2.6315
     4.7130   8.8782  12.5960  14.0977  14.4034

          k =-0.6562 0.0000 0.6562 (  1276 PWs)   bands (ev):

    -8.2520  -8.1211  -8.1130  -8.0761  -8.0640  -3.8124   0.1770   2.6434
     4.7908   8.9497  12.7551  13.9014  14.2598

          k =-0.6375 0.0000 0.6375 (  1270 PWs)   bands (ev):

    -8.2502  -8.1221  -8.1144  -8.0747  -8.0648  -3.8729   0.2398   2.6708
     4.8714   9.0218  12.8241  13.7095  14.0413

          k =-0.6188 0.0000 0.6188 (  1270 PWs)   bands (ev):

    -8.2485  -8.1231  -8.1158  -8.0734  -8.0656  -3.9404   0.3113   2.7129
     4.9544   9.0935  12.8213  13.5222  13.8230

          k =-0.6000 0.0000 0.6000 (  1272 PWs)   bands (ev):

    -8.2467  -8.1240  -8.1173  -8.0722  -8.0663  -4.0146   0.3921   2.7688
     5.0394   9.1640  12.7747  13.3399  13.6094

          k =-0.5813 0.0000 0.5813 (  1262 PWs)   bands (ev):

    -8.2447  -8.1247  -8.1187  -8.0709  -8.0670  -4.0946   0.4825   2.8376
     5.1261   9.2321  12.7062  13.1627  13.4018

          k =-0.5625 0.0000 0.5625 (  1266 PWs)   bands (ev):

    -8.2428  -8.1256  -8.1203  -8.0698  -8.0677  -4.1800   0.5827   2.9185
     5.2142   9.2965  12.6293  12.9908  13.2008

          k =-0.5437 0.0000 0.5437 (  1272 PWs)   bands (ev):

    -8.2407  -8.1264  -8.1218  -8.0689  -8.0684  -4.2697   0.6929   3.0104
     5.3033   9.3557  12.5518  12.8243  13.0074

          k =-0.5250 0.0000 0.5250 (  1272 PWs)   bands (ev):

    -8.2385  -8.1271  -8.1234  -8.0690  -8.0681  -4.3630   0.8129   3.1127
     5.3929   9.4082  12.4776  12.6634  12.8232

          k =-0.5062 0.0000 0.5062 (  1276 PWs)   bands (ev):

    -8.2362  -8.1278  -8.1250  -8.0695  -8.0674  -4.4591   0.9428   3.2246
     5.4826   9.4527  12.4058  12.5080  12.6529

          k =-0.4875 0.0000 0.4875 (  1274 PWs)   bands (ev):

    -8.2337  -8.1285  -8.1265  -8.0698  -8.0668  -4.5572   1.0822   3.3452
     5.5719   9.4876  12.3243  12.3584  12.5108

          k =-0.4688 0.0000 0.4688 (  1276 PWs)   bands (ev):

    -8.2310  -8.1293  -8.1281  -8.0701  -8.0664  -4.6563   1.2311   3.4739
     5.6605   9.5118  12.2096  12.2145  12.4219

          k =-0.4500 0.0000 0.4500 (  1283 PWs)   bands (ev):

    -8.2282  -8.1300  -8.1297  -8.0706  -8.0660  -4.7560   1.3890   3.6101
     5.7479   9.5246  12.0681  12.0763  12.3803

          k =-0.4312 0.0000 0.4313 (  1279 PWs)   bands (ev):

    -8.2252  -8.1312  -8.1308  -8.0708  -8.0656  -4.8554   1.5557   3.7530
     5.8335   9.5258  11.9206  11.9439  12.3643

          k =-0.4125 0.0000 0.4125 (  1275 PWs)   bands (ev):

    -8.2220  -8.1327  -8.1316  -8.0709  -8.0654  -4.9539   1.7309   3.9021
     5.9170   9.5154  11.7755  11.8173  12.3640

          k =-0.3937 0.0000 0.3937 (  1271 PWs)   bands (ev):

    -8.2186  -8.1342  -8.1324  -8.0710  -8.0653  -5.0510   1.9144   4.0567
     5.9979   9.4941  11.6356  11.6965  12.3738

          k =-0.3750 0.0000 0.3750 (  1273 PWs)   bands (ev):

    -8.2151  -8.1357  -8.1333  -8.0711  -8.0653  -5.1463   2.1057   4.2161
     6.0758   9.4629  11.5020  11.5815  12.3886

          k =-0.3562 0.0000 0.3562 (  1273 PWs)   bands (ev):

    -8.2114  -8.1372  -8.1343  -8.0711  -8.0653  -5.2392   2.3048   4.3797
     6.1503   9.4230  11.3753  11.4722  12.4031

          k =-0.3375 0.0000 0.3375 (  1271 PWs)   bands (ev):

    -8.2075  -8.1386  -8.1353  -8.0711  -8.0654  -5.3293   2.5111   4.5467
     6.2211   9.3754  11.2561  11.3686  12.4111

          k =-0.3187 0.0000 0.3187 (  1279 PWs)   bands (ev):

    -8.2038  -8.1399  -8.1365  -8.0712  -8.0655  -5.4163   2.7245   4.7164
     6.2878   9.3212  11.1444  11.2708  12.4061

          k =-0.3000 0.0000 0.3000 (  1279 PWs)   bands (ev):

    -8.1997  -8.1413  -8.1377  -8.0711  -8.0657  -5.4998   2.9446   4.8878
     6.3504   9.2612  11.0407  11.1787  12.3815

          k =-0.2812 0.0000 0.2812 (  1279 PWs)   bands (ev):

    -8.1956  -8.1426  -8.1389  -8.0709  -8.0658  -5.5795   3.1712   5.0601
     6.4085   9.1960  10.9452  11.0923  12.3312

          k =-0.2625 0.0000 0.2625 (  1275 PWs)   bands (ev):

    -8.1915  -8.1438  -8.1402  -8.0706  -8.0660  -5.6553   3.4039   5.2322
     6.4622   9.1260  10.8582  11.0115  12.2516

          k =-0.2437 0.0000 0.2437 (  1275 PWs)   bands (ev):

    -8.1873  -8.1449  -8.1415  -8.0704  -8.0663  -5.7268   3.6423   5.4029
     6.5112   9.0509  10.7797  10.9363  12.1415

          k =-0.2250 0.0000 0.2250 (  1283 PWs)   bands (ev):

    -8.1833  -8.1460  -8.1429  -8.0702  -8.0665  -5.7938   3.8861   5.5710
     6.5558   8.9703  10.7102  10.8667  12.0032

          k =-0.2062 0.0000 0.2062 (  1283 PWs)   bands (ev):

    -8.1793  -8.1471  -8.1442  -8.0700  -8.0668  -5.8562   4.1348   5.7351
     6.5959   8.8834  10.6496  10.8027  11.8419

          k =-0.1875 0.0000 0.1875 (  1281 PWs)   bands (ev):

    -8.1754  -8.1480  -8.1455  -8.0697  -8.0669  -5.9137   4.3880   5.8935
     6.6316   8.7888  10.5982  10.7443  11.6648

          k =-0.1687 0.0000 0.1687 (  1277 PWs)   bands (ev):

    -8.1716  -8.1489  -8.1466  -8.0694  -8.0671  -5.9662   4.6451   6.0445
     6.6631   8.6849  10.5559  10.6915  11.4796

          k =-0.1500 0.0000 0.1500 (  1277 PWs)   bands (ev):

    -8.1681  -8.1497  -8.1478  -8.0692  -8.0673  -6.0136   4.9054   6.1865
     6.6906   8.5695  10.5224  10.6442  11.2944

          k =-0.1312 0.0000 0.1312 (  1277 PWs)   bands (ev):

    -8.1649  -8.1504  -8.1489  -8.0690  -8.0674  -6.0557   5.1683   6.3174
     6.7142   8.4406  10.4975  10.6025  11.1165

          k =-0.1125 0.0000 0.1125 (  1265 PWs)   bands (ev):

    -8.1617  -8.1509  -8.1499  -8.0686  -8.0675  -6.0925   5.4325   6.4356
     6.7342   8.2964  10.4804  10.5663  10.9525

          k =-0.0938 0.0000 0.0938 (  1261 PWs)   bands (ev):

    -8.1590  -8.1514  -8.1507  -8.0684  -8.0677  -6.1237   5.6968   6.5391
     6.7508   8.1356  10.4701  10.5357  10.8077

          k =-0.0750 0.0000 0.0750 (  1251 PWs)   bands (ev):

    -8.1567  -8.1518  -8.1513  -8.0682  -8.0677  -6.1494   5.9594   6.6263
     6.7640   7.9584  10.4651  10.5107  10.6861

          k =-0.0562 0.0000 0.0562 (  1247 PWs)   bands (ev):

    -8.1549  -8.1521  -8.1519  -8.0680  -8.0677  -6.1695   6.2170   6.6957
     6.7742   7.7670  10.4638  10.4912  10.5902

          k =-0.0375 0.0000 0.0375 (  1243 PWs)   bands (ev):

    -8.1536  -8.1524  -8.1522  -8.0679  -8.0678  -6.1839   6.4634   6.7461
     6.7813   7.5676  10.4645  10.4773  10.5213

          k =-0.0187 0.0000 0.0187 (  1243 PWs)   bands (ev):

    -8.1528  -8.1525  -8.1525  -8.0678  -8.0678  -6.1925   6.6793   6.7767
     6.7856   7.3796  10.4657  10.4690  10.4800

          k = 0.0000 0.0000 0.0000 (  1243 PWs)   bands (ev):

    -8.1526  -8.1526  -8.1526  -8.0678  -8.0678  -6.1954   6.7870   6.7870
     6.7870   7.2811  10.4662  10.4662  10.4662

     Writing all to output data dir ./SCRATCH/gallium arsenide.save/

     init_run     :      0.42s CPU      0.56s WALL (       1 calls)
     electrons    :     32.94s CPU     33.41s WALL (       1 calls)

     Called by init_run:
     wfcinit      :      0.00s CPU      0.00s WALL (       1 calls)
     wfcinit:atom :      0.05s CPU      0.05s WALL (     201 calls)
     wfcinit:wfcr :      1.52s CPU      1.62s WALL (     201 calls)
     potinit      :      0.00s CPU      0.02s WALL (       1 calls)
     hinit0       :      0.36s CPU      0.37s WALL (       1 calls)

     Called by electrons:
     c_bands      :     32.94s CPU     33.41s WALL (       1 calls)
     v_of_rho     :      0.00s CPU      0.01s WALL (       1 calls)
     v_h          :      0.00s CPU      0.00s WALL (       1 calls)
     v_xc         :      0.00s CPU      0.00s WALL (       1 calls)
     newd         :      0.03s CPU      0.14s WALL (       1 calls)

     Called by c_bands:
     init_us_2    :      0.08s CPU      0.05s WALL (     201 calls)
     init_us_2:cp :      0.08s CPU      0.05s WALL (     201 calls)
     cegterg      :     31.06s CPU     31.39s WALL (     334 calls)

     Called by sum_band:

     Called by *egterg:
     cdiaghg      :      0.61s CPU      0.69s WALL (    4979 calls)
     cegterg:over :      2.66s CPU      2.45s WALL (    4778 calls)
     cegterg:upda :      0.89s CPU      1.06s WALL (    4778 calls)
     cegterg:last :      2.84s CPU      2.90s WALL (    3135 calls)
     h_psi        :     23.88s CPU     24.04s WALL (    5313 calls)
     s_psi        :      1.12s CPU      1.15s WALL (    5313 calls)
     g_psi        :      0.14s CPU      0.14s WALL (    4778 calls)

     Called by h_psi:
     h_psi:calbec :      1.50s CPU      1.56s WALL (    5313 calls)
     vloc_psi     :     21.16s CPU     21.22s WALL (    5313 calls)
     add_vuspsi   :      1.16s CPU      1.14s WALL (    5313 calls)

     General routines
     calbec       :      1.50s CPU      1.54s WALL (    5313 calls)
     fft          :      0.00s CPU      0.01s WALL (       6 calls)
     ffts         :      0.00s CPU      0.00s WALL (       1 calls)
     fftw         :     18.34s CPU     18.41s WALL (   89482 calls)
     interpolate  :      0.00s CPU      0.00s WALL (       1 calls)
     davcio       :      0.00s CPU      0.03s WALL (     402 calls)


     PWSCF        :     33.48s CPU     34.17s WALL


   This run was terminated on:  13:21:18  11Jun2024            

=------------------------------------------------------------------------------=
   JOB DONE.
=------------------------------------------------------------------------------=
