
     Program PWSCF v.7.2 starts on 11Jun2024 at 19:26:49 

     This program is part of the open-source Quantum ESPRESSO suite
     for quantum simulation of materials; please cite
         "P. Giannozzi et al., J. Phys.:Condens. Matter 21 395502 (2009);
         "P. Giannozzi et al., J. Phys.:Condens. Matter 29 465901 (2017);
         "P. Giannozzi et al., J. Chem. Phys. 152 154105 (2020);
          URL http://www.quantum-espresso.org", 
     in publications or presentations arising from this work. More details at
     http://www.quantum-espresso.org/quote

     Serial version
     9060 MiB available memory on the printing compute node when the environment starts

     Waiting for input...
     Reading input from standard input

     Current dimensions of program PWSCF are:
     Max number of different atomic species (ntypx) = 10
     Max number of k-points (npk) =  40000
     Max angular momentum in pseudopotentials (lmaxx) =  4

     Atomic positions and unit cell read from directory:
     ./SCRATCH/zns_w.save/



     G-vector sticks info
     --------------------
     sticks:   dense  smooth     PW     G-vecs:    dense   smooth      PW
     Sum         859     859    253                34121    34121    5383

     Using Slab Decomposition



     bravais-lattice index     =            4
     lattice parameter (alat)  =       7.2639  a.u.
     unit-cell volume          =     543.9373 (a.u.)^3
     number of atoms/cell      =            4
     number of atomic types    =            2
     number of electrons       =        52.00
     number of Kohn-Sham states=           16
     kinetic-energy cutoff     =      60.0000  Ry
     charge density cutoff     =     240.0000  Ry
     Exchange-correlation= PBE
                           (   1   4   3   4   0   0   0)

     celldm(1)=   7.263887  celldm(2)=   0.000000  celldm(3)=   1.638743
     celldm(4)=   0.000000  celldm(5)=   0.000000  celldm(6)=   0.000000

     crystal axes: (cart. coord. in units of alat)
               a(1) = (   1.000000   0.000000   0.000000 )  
               a(2) = (  -0.500000   0.866025   0.000000 )  
               a(3) = (   0.000000   0.000000   1.638743 )  

     reciprocal axes: (cart. coord. in units 2 pi/alat)
               b(1) = (  1.000000  0.577350 -0.000000 )  
               b(2) = (  0.000000  1.154701  0.000000 )  
               b(3) = (  0.000000 -0.000000  0.610224 )  


     PseudoPot. # 1 for Zn read from file:
     /home/paolo/project_labqsm/pseudopotentials/Zn_ONCV_PBE-1.2.upf
     MD5 check sum: 732f41c0cd6489a4b50a33b4ec99a2d3
     Pseudo is Norm-conserving, Zval = 20.0
     Generated using ONCVPSP code by D. R. Hamann
     Using radial grid of  602 points,  6 beta functions with: 
                l(1) =   0
                l(2) =   0
                l(3) =   1
                l(4) =   1
                l(5) =   2
                l(6) =   2

     PseudoPot. # 2 for S  read from file:
     /home/paolo/project_labqsm/pseudopotentials/S_ONCV_PBE-1.2.upf
     MD5 check sum: f9d020296ee6110346977bfd66d424f6
     Pseudo is Norm-conserving, Zval =  6.0
     Generated using ONCVPSP code by D. R. Hamann
     Using radial grid of  602 points,  4 beta functions with: 
                l(1) =   0
                l(2) =   0
                l(3) =   1
                l(4) =   1

     atomic species   valence    mass     pseudopotential
        Zn            20.00    65.38000     Zn( 1.00)
        S              6.00    32.06000     S ( 1.00)

      6 Sym. Ops. (no inversion) found


                                    s                        frac. trans.

      isym =  1     identity                                     

 cryst.   s( 1) = (     1          0          0      )
                  (     0          1          0      )
                  (     0          0          1      )

 cart.    s( 1) = (  1.0000000  0.0000000  0.0000000 )
                  (  0.0000000  1.0000000  0.0000000 )
                  (  0.0000000  0.0000000  1.0000000 )


      isym =  2     120 deg rotation - cryst. axis [0,0,1]       

 cryst.   s( 2) = (     0          1          0      )
                  (    -1         -1          0      )
                  (     0          0          1      )

 cart.    s( 2) = ( -0.5000000 -0.8660254  0.0000000 )
                  (  0.8660254 -0.5000000  0.0000000 )
                  (  0.0000000  0.0000000  1.0000000 )


      isym =  3     120 deg rotation - cryst. axis [0,0,-1]      

 cryst.   s( 3) = (    -1         -1          0      )
                  (     1          0          0      )
                  (     0          0          1      )

 cart.    s( 3) = ( -0.5000000  0.8660254  0.0000000 )
                  ( -0.8660254 -0.5000000  0.0000000 )
                  (  0.0000000  0.0000000  1.0000000 )


      isym =  4     inv. 180 deg rotation - cart. axis [1,0,0]   

 cryst.   s( 4) = (    -1          0          0      )
                  (     1          1          0      )
                  (     0          0          1      )

 cart.    s( 4) = ( -1.0000000 -0.0000000  0.0000000 )
                  (  0.0000000  1.0000000  0.0000000 )
                  (  0.0000000  0.0000000  1.0000000 )


      isym =  5     inv. 180 deg rotation - cryst. axis [0,1,0]  

 cryst.   s( 5) = (     1          1          0      )
                  (     0         -1          0      )
                  (     0          0          1      )

 cart.    s( 5) = (  0.5000000  0.8660254  0.0000000 )
                  (  0.8660254 -0.5000000  0.0000000 )
                  (  0.0000000  0.0000000  1.0000000 )


      isym =  6     inv. 180 deg rotation - cryst. axis [1,1,0]  

 cryst.   s( 6) = (     0         -1          0      )
                  (    -1          0          0      )
                  (     0          0          1      )

 cart.    s( 6) = (  0.5000000 -0.8660254  0.0000000 )
                  ( -0.8660254 -0.5000000  0.0000000 )
                  (  0.0000000  0.0000000  1.0000000 )


     point group C_3v (3m)  
     there are  3 classes
     the character table:

       E     2C3   3s_v 
A_1    1.00  1.00  1.00
A_2    1.00  1.00 -1.00
E      2.00 -1.00  0.00

     the symmetry operations in each class and the name of the first element:

     E        1
          identity                                               
     2C3      2    3
          120 deg rotation - cryst. axis [0,0,1]                 
     3s_v     4    5    6
          inv. 180 deg rotation - cart. axis [1,0,0]             

   Cartesian axes

     site n.     atom                  positions (alat units)
         1           Zn  tau(   1) = (   0.0000000   0.0000000   0.0000000  )
         2           S   tau(   2) = (   0.0000000   0.0000000   0.3723729  )
         3           Zn  tau(   3) = (   0.0000000   0.5773503   0.5000000  )
         4           S   tau(   4) = (   0.0000000   0.5773503   0.8723729  )

   Crystallographic axes

     site n.     atom                  positions (cryst. coord.)
         1           Zn  tau(   1) = (  0.0000000  0.0000000  0.0000000  )
         2           S   tau(   2) = (  0.0000000  0.0000000  0.2272307  )
         3           Zn  tau(   3) = (  0.3333333  0.6666667  0.3051118  )
         4           S   tau(   4) = (  0.3333333  0.6666667  0.5323426  )

     number of k points=   241
                       cart. coord. in units 2pi/alat
        k(    1) = (   0.0000000   0.0000000   0.0000000), wk =   0.0082988
        k(    2) = (   0.0000000   0.0000000   0.0076278), wk =   0.0082988
        k(    3) = (   0.0000000   0.0000000   0.0152556), wk =   0.0082988
        k(    4) = (   0.0000000   0.0000000   0.0228834), wk =   0.0082988
        k(    5) = (   0.0000000   0.0000000   0.0305112), wk =   0.0082988
        k(    6) = (   0.0000000   0.0000000   0.0381390), wk =   0.0082988
        k(    7) = (   0.0000000   0.0000000   0.0457668), wk =   0.0082988
        k(    8) = (   0.0000000   0.0000000   0.0533946), wk =   0.0082988
        k(    9) = (   0.0000000   0.0000000   0.0610224), wk =   0.0082988
        k(   10) = (   0.0000000   0.0000000   0.0686502), wk =   0.0082988
        k(   11) = (   0.0000000   0.0000000   0.0762780), wk =   0.0082988
        k(   12) = (   0.0000000   0.0000000   0.0839058), wk =   0.0082988
        k(   13) = (   0.0000000   0.0000000   0.0915335), wk =   0.0082988
        k(   14) = (   0.0000000   0.0000000   0.0991613), wk =   0.0082988
        k(   15) = (   0.0000000   0.0000000   0.1067891), wk =   0.0082988
        k(   16) = (   0.0000000   0.0000000   0.1144169), wk =   0.0082988
        k(   17) = (   0.0000000   0.0000000   0.1220447), wk =   0.0082988
        k(   18) = (   0.0000000   0.0000000   0.1296725), wk =   0.0082988
        k(   19) = (   0.0000000   0.0000000   0.1373003), wk =   0.0082988
        k(   20) = (   0.0000000   0.0000000   0.1449281), wk =   0.0082988
        k(   21) = (   0.0000000   0.0000000   0.1525559), wk =   0.0082988
        k(   22) = (   0.0000000   0.0000000   0.1601837), wk =   0.0082988
        k(   23) = (   0.0000000   0.0000000   0.1678115), wk =   0.0082988
        k(   24) = (   0.0000000   0.0000000   0.1754393), wk =   0.0082988
        k(   25) = (   0.0000000   0.0000000   0.1830671), wk =   0.0082988
        k(   26) = (   0.0000000   0.0000000   0.1906949), wk =   0.0082988
        k(   27) = (   0.0000000   0.0000000   0.1983227), wk =   0.0082988
        k(   28) = (   0.0000000   0.0000000   0.2059505), wk =   0.0082988
        k(   29) = (   0.0000000   0.0000000   0.2135783), wk =   0.0082988
        k(   30) = (   0.0000000   0.0000000   0.2212061), wk =   0.0082988
        k(   31) = (   0.0000000   0.0000000   0.2288339), wk =   0.0082988
        k(   32) = (   0.0000000   0.0000000   0.2364617), wk =   0.0082988
        k(   33) = (   0.0000000   0.0000000   0.2440895), wk =   0.0082988
        k(   34) = (   0.0000000   0.0000000   0.2517173), wk =   0.0082988
        k(   35) = (   0.0000000   0.0000000   0.2593450), wk =   0.0082988
        k(   36) = (   0.0000000   0.0000000   0.2669728), wk =   0.0082988
        k(   37) = (   0.0000000   0.0000000   0.2746006), wk =   0.0082988
        k(   38) = (   0.0000000   0.0000000   0.2822284), wk =   0.0082988
        k(   39) = (   0.0000000   0.0000000   0.2898562), wk =   0.0082988
        k(   40) = (   0.0000000   0.0000000   0.2974840), wk =   0.0082988
        k(   41) = (   0.0000000   0.0000000   0.3051118), wk =   0.0082988
        k(   42) = (   0.0083333   0.0144338   0.3051118), wk =   0.0082988
        k(   43) = (   0.0166667   0.0288675   0.3051118), wk =   0.0082988
        k(   44) = (   0.0250000   0.0433013   0.3051118), wk =   0.0082988
        k(   45) = (   0.0333333   0.0577350   0.3051118), wk =   0.0082988
        k(   46) = (   0.0416667   0.0721688   0.3051118), wk =   0.0082988
        k(   47) = (   0.0500000   0.0866025   0.3051118), wk =   0.0082988
        k(   48) = (   0.0583333   0.1010363   0.3051118), wk =   0.0082988
        k(   49) = (   0.0666667   0.1154701   0.3051118), wk =   0.0082988
        k(   50) = (   0.0750000   0.1299038   0.3051118), wk =   0.0082988
        k(   51) = (   0.0833333   0.1443376   0.3051118), wk =   0.0082988
        k(   52) = (   0.0916667   0.1587713   0.3051118), wk =   0.0082988
        k(   53) = (   0.1000000   0.1732051   0.3051118), wk =   0.0082988
        k(   54) = (   0.1083333   0.1876388   0.3051118), wk =   0.0082988
        k(   55) = (   0.1166667   0.2020726   0.3051118), wk =   0.0082988
        k(   56) = (   0.1250000   0.2165064   0.3051118), wk =   0.0082988
        k(   57) = (   0.1333333   0.2309401   0.3051118), wk =   0.0082988
        k(   58) = (   0.1416667   0.2453739   0.3051118), wk =   0.0082988
        k(   59) = (   0.1500000   0.2598076   0.3051118), wk =   0.0082988
        k(   60) = (   0.1583333   0.2742414   0.3051118), wk =   0.0082988
        k(   61) = (   0.1666667   0.2886751   0.3051118), wk =   0.0082988
        k(   62) = (   0.1750000   0.3031089   0.3051118), wk =   0.0082988
        k(   63) = (   0.1833333   0.3175426   0.3051118), wk =   0.0082988
        k(   64) = (   0.1916667   0.3319764   0.3051118), wk =   0.0082988
        k(   65) = (   0.2000000   0.3464102   0.3051118), wk =   0.0082988
        k(   66) = (   0.2083333   0.3608439   0.3051118), wk =   0.0082988
        k(   67) = (   0.2166667   0.3752777   0.3051118), wk =   0.0082988
        k(   68) = (   0.2250000   0.3897114   0.3051118), wk =   0.0082988
        k(   69) = (   0.2333333   0.4041452   0.3051118), wk =   0.0082988
        k(   70) = (   0.2416667   0.4185789   0.3051118), wk =   0.0082988
        k(   71) = (   0.2500000   0.4330127   0.3051118), wk =   0.0082988
        k(   72) = (   0.2583333   0.4474465   0.3051118), wk =   0.0082988
        k(   73) = (   0.2666667   0.4618802   0.3051118), wk =   0.0082988
        k(   74) = (   0.2750000   0.4763140   0.3051118), wk =   0.0082988
        k(   75) = (   0.2833333   0.4907477   0.3051118), wk =   0.0082988
        k(   76) = (   0.2916667   0.5051815   0.3051118), wk =   0.0082988
        k(   77) = (   0.3000000   0.5196152   0.3051118), wk =   0.0082988
        k(   78) = (   0.3083333   0.5340490   0.3051118), wk =   0.0082988
        k(   79) = (   0.3166667   0.5484828   0.3051118), wk =   0.0082988
        k(   80) = (   0.3250000   0.5629165   0.3051118), wk =   0.0082988
        k(   81) = (   0.3333333   0.5773503   0.3051118), wk =   0.0082988
        k(   82) = (   0.3333333   0.5773503   0.2974840), wk =   0.0082988
        k(   83) = (   0.3333333   0.5773503   0.2898562), wk =   0.0082988
        k(   84) = (   0.3333333   0.5773503   0.2822284), wk =   0.0082988
        k(   85) = (   0.3333333   0.5773503   0.2746006), wk =   0.0082988
        k(   86) = (   0.3333333   0.5773503   0.2669728), wk =   0.0082988
        k(   87) = (   0.3333333   0.5773503   0.2593450), wk =   0.0082988
        k(   88) = (   0.3333333   0.5773503   0.2517173), wk =   0.0082988
        k(   89) = (   0.3333333   0.5773503   0.2440895), wk =   0.0082988
        k(   90) = (   0.3333333   0.5773503   0.2364617), wk =   0.0082988
        k(   91) = (   0.3333333   0.5773503   0.2288339), wk =   0.0082988
        k(   92) = (   0.3333333   0.5773503   0.2212061), wk =   0.0082988
        k(   93) = (   0.3333333   0.5773503   0.2135783), wk =   0.0082988
        k(   94) = (   0.3333333   0.5773503   0.2059505), wk =   0.0082988
        k(   95) = (   0.3333333   0.5773503   0.1983227), wk =   0.0082988
        k(   96) = (   0.3333333   0.5773503   0.1906949), wk =   0.0082988
        k(   97) = (   0.3333333   0.5773503   0.1830671), wk =   0.0082988
        k(   98) = (   0.3333333   0.5773503   0.1754393), wk =   0.0082988
        k(   99) = (   0.3333333   0.5773503   0.1678115), wk =   0.0082988
        k(  100) = (   0.3333333   0.5773503   0.1601837), wk =   0.0082988
        k(  101) = (   0.3333333   0.5773503   0.1525559), wk =   0.0082988
        k(  102) = (   0.3333333   0.5773503   0.1449281), wk =   0.0082988
        k(  103) = (   0.3333333   0.5773503   0.1373003), wk =   0.0082988
        k(  104) = (   0.3333333   0.5773503   0.1296725), wk =   0.0082988
        k(  105) = (   0.3333333   0.5773503   0.1220447), wk =   0.0082988
        k(  106) = (   0.3333333   0.5773503   0.1144169), wk =   0.0082988
        k(  107) = (   0.3333333   0.5773503   0.1067891), wk =   0.0082988
        k(  108) = (   0.3333333   0.5773503   0.0991613), wk =   0.0082988
        k(  109) = (   0.3333333   0.5773503   0.0915335), wk =   0.0082988
        k(  110) = (   0.3333333   0.5773503   0.0839058), wk =   0.0082988
        k(  111) = (   0.3333333   0.5773503   0.0762780), wk =   0.0082988
        k(  112) = (   0.3333333   0.5773503   0.0686502), wk =   0.0082988
        k(  113) = (   0.3333333   0.5773503   0.0610224), wk =   0.0082988
        k(  114) = (   0.3333333   0.5773503   0.0533946), wk =   0.0082988
        k(  115) = (   0.3333333   0.5773503   0.0457668), wk =   0.0082988
        k(  116) = (   0.3333333   0.5773503   0.0381390), wk =   0.0082988
        k(  117) = (   0.3333333   0.5773503   0.0305112), wk =   0.0082988
        k(  118) = (   0.3333333   0.5773503   0.0228834), wk =   0.0082988
        k(  119) = (   0.3333333   0.5773503   0.0152556), wk =   0.0082988
        k(  120) = (   0.3333333   0.5773503   0.0076278), wk =   0.0082988
        k(  121) = (   0.3333333   0.5773503   0.0000000), wk =   0.0082988
        k(  122) = (   0.3375000   0.5701334   0.0076278), wk =   0.0082988
        k(  123) = (   0.3416667   0.5629165   0.0152556), wk =   0.0082988
        k(  124) = (   0.3458333   0.5556996   0.0228834), wk =   0.0082988
        k(  125) = (   0.3500000   0.5484828   0.0305112), wk =   0.0082988
        k(  126) = (   0.3541667   0.5412659   0.0381390), wk =   0.0082988
        k(  127) = (   0.3583333   0.5340490   0.0457668), wk =   0.0082988
        k(  128) = (   0.3625000   0.5268321   0.0533946), wk =   0.0082988
        k(  129) = (   0.3666667   0.5196152   0.0610224), wk =   0.0082988
        k(  130) = (   0.3708333   0.5123984   0.0686502), wk =   0.0082988
        k(  131) = (   0.3750000   0.5051815   0.0762780), wk =   0.0082988
        k(  132) = (   0.3791667   0.4979646   0.0839058), wk =   0.0082988
        k(  133) = (   0.3833333   0.4907477   0.0915335), wk =   0.0082988
        k(  134) = (   0.3875000   0.4835309   0.0991613), wk =   0.0082988
        k(  135) = (   0.3916667   0.4763140   0.1067891), wk =   0.0082988
        k(  136) = (   0.3958333   0.4690971   0.1144169), wk =   0.0082988
        k(  137) = (   0.4000000   0.4618802   0.1220447), wk =   0.0082988
        k(  138) = (   0.4041667   0.4546633   0.1296725), wk =   0.0082988
        k(  139) = (   0.4083333   0.4474465   0.1373003), wk =   0.0082988
        k(  140) = (   0.4125000   0.4402296   0.1449281), wk =   0.0082988
        k(  141) = (   0.4166667   0.4330127   0.1525559), wk =   0.0082988
        k(  142) = (   0.4208333   0.4257958   0.1601837), wk =   0.0082988
        k(  143) = (   0.4250000   0.4185789   0.1678115), wk =   0.0082988
        k(  144) = (   0.4291667   0.4113621   0.1754393), wk =   0.0082988
        k(  145) = (   0.4333333   0.4041452   0.1830671), wk =   0.0082988
        k(  146) = (   0.4375000   0.3969283   0.1906949), wk =   0.0082988
        k(  147) = (   0.4416667   0.3897114   0.1983227), wk =   0.0082988
        k(  148) = (   0.4458333   0.3824946   0.2059505), wk =   0.0082988
        k(  149) = (   0.4500000   0.3752777   0.2135783), wk =   0.0082988
        k(  150) = (   0.4541667   0.3680608   0.2212061), wk =   0.0082988
        k(  151) = (   0.4583333   0.3608439   0.2288339), wk =   0.0082988
        k(  152) = (   0.4625000   0.3536270   0.2364617), wk =   0.0082988
        k(  153) = (   0.4666667   0.3464102   0.2440895), wk =   0.0082988
        k(  154) = (   0.4708333   0.3391933   0.2517173), wk =   0.0082988
        k(  155) = (   0.4750000   0.3319764   0.2593450), wk =   0.0082988
        k(  156) = (   0.4791667   0.3247595   0.2669728), wk =   0.0082988
        k(  157) = (   0.4833333   0.3175426   0.2746006), wk =   0.0082988
        k(  158) = (   0.4875000   0.3103258   0.2822284), wk =   0.0082988
        k(  159) = (   0.4916667   0.3031089   0.2898562), wk =   0.0082988
        k(  160) = (   0.4958333   0.2958920   0.2974840), wk =   0.0082988
        k(  161) = (   0.5000000   0.2886751   0.3051118), wk =   0.0082988
        k(  162) = (   0.5000000   0.2886751   0.2974840), wk =   0.0082988
        k(  163) = (   0.5000000   0.2886751   0.2898562), wk =   0.0082988
        k(  164) = (   0.5000000   0.2886751   0.2822284), wk =   0.0082988
        k(  165) = (   0.5000000   0.2886751   0.2746006), wk =   0.0082988
        k(  166) = (   0.5000000   0.2886751   0.2669728), wk =   0.0082988
        k(  167) = (   0.5000000   0.2886751   0.2593450), wk =   0.0082988
        k(  168) = (   0.5000000   0.2886751   0.2517173), wk =   0.0082988
        k(  169) = (   0.5000000   0.2886751   0.2440895), wk =   0.0082988
        k(  170) = (   0.5000000   0.2886751   0.2364617), wk =   0.0082988
        k(  171) = (   0.5000000   0.2886751   0.2288339), wk =   0.0082988
        k(  172) = (   0.5000000   0.2886751   0.2212061), wk =   0.0082988
        k(  173) = (   0.5000000   0.2886751   0.2135783), wk =   0.0082988
        k(  174) = (   0.5000000   0.2886751   0.2059505), wk =   0.0082988
        k(  175) = (   0.5000000   0.2886751   0.1983227), wk =   0.0082988
        k(  176) = (   0.5000000   0.2886751   0.1906949), wk =   0.0082988
        k(  177) = (   0.5000000   0.2886751   0.1830671), wk =   0.0082988
        k(  178) = (   0.5000000   0.2886751   0.1754393), wk =   0.0082988
        k(  179) = (   0.5000000   0.2886751   0.1678115), wk =   0.0082988
        k(  180) = (   0.5000000   0.2886751   0.1601837), wk =   0.0082988
        k(  181) = (   0.5000000   0.2886751   0.1525559), wk =   0.0082988
        k(  182) = (   0.5000000   0.2886751   0.1449281), wk =   0.0082988
        k(  183) = (   0.5000000   0.2886751   0.1373003), wk =   0.0082988
        k(  184) = (   0.5000000   0.2886751   0.1296725), wk =   0.0082988
        k(  185) = (   0.5000000   0.2886751   0.1220447), wk =   0.0082988
        k(  186) = (   0.5000000   0.2886751   0.1144169), wk =   0.0082988
        k(  187) = (   0.5000000   0.2886751   0.1067891), wk =   0.0082988
        k(  188) = (   0.5000000   0.2886751   0.0991613), wk =   0.0082988
        k(  189) = (   0.5000000   0.2886751   0.0915335), wk =   0.0082988
        k(  190) = (   0.5000000   0.2886751   0.0839058), wk =   0.0082988
        k(  191) = (   0.5000000   0.2886751   0.0762780), wk =   0.0082988
        k(  192) = (   0.5000000   0.2886751   0.0686502), wk =   0.0082988
        k(  193) = (   0.5000000   0.2886751   0.0610224), wk =   0.0082988
        k(  194) = (   0.5000000   0.2886751   0.0533946), wk =   0.0082988
        k(  195) = (   0.5000000   0.2886751   0.0457668), wk =   0.0082988
        k(  196) = (   0.5000000   0.2886751   0.0381390), wk =   0.0082988
        k(  197) = (   0.5000000   0.2886751   0.0305112), wk =   0.0082988
        k(  198) = (   0.5000000   0.2886751   0.0228834), wk =   0.0082988
        k(  199) = (   0.5000000   0.2886751   0.0152556), wk =   0.0082988
        k(  200) = (   0.5000000   0.2886751   0.0076278), wk =   0.0082988
        k(  201) = (   0.5000000   0.2886751   0.0000000), wk =   0.0082988
        k(  202) = (   0.4875000   0.2814583   0.0000000), wk =   0.0082988
        k(  203) = (   0.4750000   0.2742414   0.0000000), wk =   0.0082988
        k(  204) = (   0.4625000   0.2670245   0.0000000), wk =   0.0082988
        k(  205) = (   0.4500000   0.2598076   0.0000000), wk =   0.0082988
        k(  206) = (   0.4375000   0.2525907   0.0000000), wk =   0.0082988
        k(  207) = (   0.4250000   0.2453739   0.0000000), wk =   0.0082988
        k(  208) = (   0.4125000   0.2381570   0.0000000), wk =   0.0082988
        k(  209) = (   0.4000000   0.2309401   0.0000000), wk =   0.0082988
        k(  210) = (   0.3875000   0.2237232   0.0000000), wk =   0.0082988
        k(  211) = (   0.3750000   0.2165064   0.0000000), wk =   0.0082988
        k(  212) = (   0.3625000   0.2092895   0.0000000), wk =   0.0082988
        k(  213) = (   0.3500000   0.2020726   0.0000000), wk =   0.0082988
        k(  214) = (   0.3375000   0.1948557   0.0000000), wk =   0.0082988
        k(  215) = (   0.3250000   0.1876388   0.0000000), wk =   0.0082988
        k(  216) = (   0.3125000   0.1804220   0.0000000), wk =   0.0082988
        k(  217) = (   0.3000000   0.1732051   0.0000000), wk =   0.0082988
        k(  218) = (   0.2875000   0.1659882   0.0000000), wk =   0.0082988
        k(  219) = (   0.2750000   0.1587713   0.0000000), wk =   0.0082988
        k(  220) = (   0.2625000   0.1515544   0.0000000), wk =   0.0082988
        k(  221) = (   0.2500000   0.1443376   0.0000000), wk =   0.0082988
        k(  222) = (   0.2375000   0.1371207   0.0000000), wk =   0.0082988
        k(  223) = (   0.2250000   0.1299038   0.0000000), wk =   0.0082988
        k(  224) = (   0.2125000   0.1226869   0.0000000), wk =   0.0082988
        k(  225) = (   0.2000000   0.1154701   0.0000000), wk =   0.0082988
        k(  226) = (   0.1875000   0.1082532   0.0000000), wk =   0.0082988
        k(  227) = (   0.1750000   0.1010363   0.0000000), wk =   0.0082988
        k(  228) = (   0.1625000   0.0938194   0.0000000), wk =   0.0082988
        k(  229) = (   0.1500000   0.0866025   0.0000000), wk =   0.0082988
        k(  230) = (   0.1375000   0.0793857   0.0000000), wk =   0.0082988
        k(  231) = (   0.1250000   0.0721688   0.0000000), wk =   0.0082988
        k(  232) = (   0.1125000   0.0649519   0.0000000), wk =   0.0082988
        k(  233) = (   0.1000000   0.0577350   0.0000000), wk =   0.0082988
        k(  234) = (   0.0875000   0.0505181   0.0000000), wk =   0.0082988
        k(  235) = (   0.0750000   0.0433013   0.0000000), wk =   0.0082988
        k(  236) = (   0.0625000   0.0360844   0.0000000), wk =   0.0082988
        k(  237) = (   0.0500000   0.0288675   0.0000000), wk =   0.0082988
        k(  238) = (   0.0375000   0.0216506   0.0000000), wk =   0.0082988
        k(  239) = (   0.0250000   0.0144338   0.0000000), wk =   0.0082988
        k(  240) = (   0.0125000   0.0072169   0.0000000), wk =   0.0082988
        k(  241) = (   0.0000000   0.0000000   0.0000000), wk =   0.0082988

                       cryst. coord.
        k(    1) = (   0.0000000   0.0000000   0.0000000), wk =   0.0082988
        k(    2) = (   0.0000000   0.0000000   0.0125000), wk =   0.0082988
        k(    3) = (   0.0000000   0.0000000   0.0250000), wk =   0.0082988
        k(    4) = (   0.0000000   0.0000000   0.0375000), wk =   0.0082988
        k(    5) = (   0.0000000   0.0000000   0.0500000), wk =   0.0082988
        k(    6) = (   0.0000000   0.0000000   0.0625000), wk =   0.0082988
        k(    7) = (   0.0000000   0.0000000   0.0750000), wk =   0.0082988
        k(    8) = (   0.0000000   0.0000000   0.0875000), wk =   0.0082988
        k(    9) = (   0.0000000   0.0000000   0.1000000), wk =   0.0082988
        k(   10) = (   0.0000000   0.0000000   0.1125000), wk =   0.0082988
        k(   11) = (   0.0000000   0.0000000   0.1250000), wk =   0.0082988
        k(   12) = (   0.0000000   0.0000000   0.1375000), wk =   0.0082988
        k(   13) = (   0.0000000   0.0000000   0.1500000), wk =   0.0082988
        k(   14) = (   0.0000000   0.0000000   0.1625000), wk =   0.0082988
        k(   15) = (   0.0000000   0.0000000   0.1750000), wk =   0.0082988
        k(   16) = (   0.0000000   0.0000000   0.1875000), wk =   0.0082988
        k(   17) = (   0.0000000   0.0000000   0.2000000), wk =   0.0082988
        k(   18) = (   0.0000000   0.0000000   0.2125000), wk =   0.0082988
        k(   19) = (   0.0000000   0.0000000   0.2250000), wk =   0.0082988
        k(   20) = (   0.0000000   0.0000000   0.2375000), wk =   0.0082988
        k(   21) = (   0.0000000   0.0000000   0.2500000), wk =   0.0082988
        k(   22) = (   0.0000000   0.0000000   0.2625000), wk =   0.0082988
        k(   23) = (   0.0000000   0.0000000   0.2750000), wk =   0.0082988
        k(   24) = (   0.0000000   0.0000000   0.2875000), wk =   0.0082988
        k(   25) = (   0.0000000   0.0000000   0.3000000), wk =   0.0082988
        k(   26) = (   0.0000000   0.0000000   0.3125000), wk =   0.0082988
        k(   27) = (   0.0000000   0.0000000   0.3250000), wk =   0.0082988
        k(   28) = (   0.0000000   0.0000000   0.3375000), wk =   0.0082988
        k(   29) = (   0.0000000   0.0000000   0.3500000), wk =   0.0082988
        k(   30) = (   0.0000000   0.0000000   0.3625000), wk =   0.0082988
        k(   31) = (   0.0000000   0.0000000   0.3750000), wk =   0.0082988
        k(   32) = (   0.0000000   0.0000000   0.3875000), wk =   0.0082988
        k(   33) = (   0.0000000   0.0000000   0.4000000), wk =   0.0082988
        k(   34) = (   0.0000000   0.0000000   0.4125000), wk =   0.0082988
        k(   35) = (   0.0000000   0.0000000   0.4250000), wk =   0.0082988
        k(   36) = (   0.0000000   0.0000000   0.4375000), wk =   0.0082988
        k(   37) = (   0.0000000   0.0000000   0.4500000), wk =   0.0082988
        k(   38) = (   0.0000000   0.0000000   0.4625000), wk =   0.0082988
        k(   39) = (   0.0000000   0.0000000   0.4750000), wk =   0.0082988
        k(   40) = (   0.0000000   0.0000000   0.4875000), wk =   0.0082988
        k(   41) = (   0.0000000   0.0000000   0.5000000), wk =   0.0082988
        k(   42) = (   0.0083333   0.0083333   0.5000000), wk =   0.0082988
        k(   43) = (   0.0166667   0.0166667   0.5000000), wk =   0.0082988
        k(   44) = (   0.0250000   0.0250000   0.5000000), wk =   0.0082988
        k(   45) = (   0.0333333   0.0333333   0.5000000), wk =   0.0082988
        k(   46) = (   0.0416667   0.0416667   0.5000000), wk =   0.0082988
        k(   47) = (   0.0500000   0.0500000   0.5000000), wk =   0.0082988
        k(   48) = (   0.0583333   0.0583333   0.5000000), wk =   0.0082988
        k(   49) = (   0.0666667   0.0666667   0.5000000), wk =   0.0082988
        k(   50) = (   0.0750000   0.0750000   0.5000000), wk =   0.0082988
        k(   51) = (   0.0833333   0.0833333   0.5000000), wk =   0.0082988
        k(   52) = (   0.0916667   0.0916667   0.5000000), wk =   0.0082988
        k(   53) = (   0.1000000   0.1000000   0.5000000), wk =   0.0082988
        k(   54) = (   0.1083333   0.1083333   0.5000000), wk =   0.0082988
        k(   55) = (   0.1166667   0.1166667   0.5000000), wk =   0.0082988
        k(   56) = (   0.1250000   0.1250000   0.5000000), wk =   0.0082988
        k(   57) = (   0.1333333   0.1333333   0.5000000), wk =   0.0082988
        k(   58) = (   0.1416667   0.1416667   0.5000000), wk =   0.0082988
        k(   59) = (   0.1500000   0.1500000   0.5000000), wk =   0.0082988
        k(   60) = (   0.1583333   0.1583333   0.5000000), wk =   0.0082988
        k(   61) = (   0.1666667   0.1666667   0.5000000), wk =   0.0082988
        k(   62) = (   0.1750000   0.1750000   0.5000000), wk =   0.0082988
        k(   63) = (   0.1833333   0.1833333   0.5000000), wk =   0.0082988
        k(   64) = (   0.1916667   0.1916667   0.5000000), wk =   0.0082988
        k(   65) = (   0.2000000   0.2000000   0.5000000), wk =   0.0082988
        k(   66) = (   0.2083333   0.2083333   0.5000000), wk =   0.0082988
        k(   67) = (   0.2166667   0.2166667   0.5000000), wk =   0.0082988
        k(   68) = (   0.2250000   0.2250000   0.5000000), wk =   0.0082988
        k(   69) = (   0.2333333   0.2333333   0.5000000), wk =   0.0082988
        k(   70) = (   0.2416667   0.2416667   0.5000000), wk =   0.0082988
        k(   71) = (   0.2500000   0.2500000   0.5000000), wk =   0.0082988
        k(   72) = (   0.2583333   0.2583333   0.5000000), wk =   0.0082988
        k(   73) = (   0.2666667   0.2666667   0.5000000), wk =   0.0082988
        k(   74) = (   0.2750000   0.2750000   0.5000000), wk =   0.0082988
        k(   75) = (   0.2833333   0.2833333   0.5000000), wk =   0.0082988
        k(   76) = (   0.2916667   0.2916667   0.5000000), wk =   0.0082988
        k(   77) = (   0.3000000   0.3000000   0.5000000), wk =   0.0082988
        k(   78) = (   0.3083333   0.3083333   0.5000000), wk =   0.0082988
        k(   79) = (   0.3166667   0.3166667   0.5000000), wk =   0.0082988
        k(   80) = (   0.3250000   0.3250000   0.5000000), wk =   0.0082988
        k(   81) = (   0.3333333   0.3333333   0.5000000), wk =   0.0082988
        k(   82) = (   0.3333333   0.3333333   0.4875000), wk =   0.0082988
        k(   83) = (   0.3333333   0.3333333   0.4750000), wk =   0.0082988
        k(   84) = (   0.3333333   0.3333333   0.4625000), wk =   0.0082988
        k(   85) = (   0.3333333   0.3333333   0.4500000), wk =   0.0082988
        k(   86) = (   0.3333333   0.3333333   0.4375000), wk =   0.0082988
        k(   87) = (   0.3333333   0.3333333   0.4250000), wk =   0.0082988
        k(   88) = (   0.3333333   0.3333333   0.4125000), wk =   0.0082988
        k(   89) = (   0.3333333   0.3333333   0.4000000), wk =   0.0082988
        k(   90) = (   0.3333333   0.3333333   0.3875000), wk =   0.0082988
        k(   91) = (   0.3333333   0.3333333   0.3750000), wk =   0.0082988
        k(   92) = (   0.3333333   0.3333333   0.3625000), wk =   0.0082988
        k(   93) = (   0.3333333   0.3333333   0.3500000), wk =   0.0082988
        k(   94) = (   0.3333333   0.3333333   0.3375000), wk =   0.0082988
        k(   95) = (   0.3333333   0.3333333   0.3250000), wk =   0.0082988
        k(   96) = (   0.3333333   0.3333333   0.3125000), wk =   0.0082988
        k(   97) = (   0.3333333   0.3333333   0.3000000), wk =   0.0082988
        k(   98) = (   0.3333333   0.3333333   0.2875000), wk =   0.0082988
        k(   99) = (   0.3333333   0.3333333   0.2750000), wk =   0.0082988
        k(  100) = (   0.3333333   0.3333333   0.2625000), wk =   0.0082988
        k(  101) = (   0.3333333   0.3333333   0.2500000), wk =   0.0082988
        k(  102) = (   0.3333333   0.3333333   0.2375000), wk =   0.0082988
        k(  103) = (   0.3333333   0.3333333   0.2250000), wk =   0.0082988
        k(  104) = (   0.3333333   0.3333333   0.2125000), wk =   0.0082988
        k(  105) = (   0.3333333   0.3333333   0.2000000), wk =   0.0082988
        k(  106) = (   0.3333333   0.3333333   0.1875000), wk =   0.0082988
        k(  107) = (   0.3333333   0.3333333   0.1750000), wk =   0.0082988
        k(  108) = (   0.3333333   0.3333333   0.1625000), wk =   0.0082988
        k(  109) = (   0.3333333   0.3333333   0.1500000), wk =   0.0082988
        k(  110) = (   0.3333333   0.3333333   0.1375000), wk =   0.0082988
        k(  111) = (   0.3333333   0.3333333   0.1250000), wk =   0.0082988
        k(  112) = (   0.3333333   0.3333333   0.1125000), wk =   0.0082988
        k(  113) = (   0.3333333   0.3333333   0.1000000), wk =   0.0082988
        k(  114) = (   0.3333333   0.3333333   0.0875000), wk =   0.0082988
        k(  115) = (   0.3333333   0.3333333   0.0750000), wk =   0.0082988
        k(  116) = (   0.3333333   0.3333333   0.0625000), wk =   0.0082988
        k(  117) = (   0.3333333   0.3333333   0.0500000), wk =   0.0082988
        k(  118) = (   0.3333333   0.3333333   0.0375000), wk =   0.0082988
        k(  119) = (   0.3333333   0.3333333   0.0250000), wk =   0.0082988
        k(  120) = (   0.3333333   0.3333333   0.0125000), wk =   0.0082988
        k(  121) = (   0.3333333   0.3333333   0.0000000), wk =   0.0082988
        k(  122) = (   0.3375000   0.3250000   0.0125000), wk =   0.0082988
        k(  123) = (   0.3416667   0.3166667   0.0250000), wk =   0.0082988
        k(  124) = (   0.3458333   0.3083333   0.0375000), wk =   0.0082988
        k(  125) = (   0.3500000   0.3000000   0.0500000), wk =   0.0082988
        k(  126) = (   0.3541667   0.2916667   0.0625000), wk =   0.0082988
        k(  127) = (   0.3583333   0.2833333   0.0750000), wk =   0.0082988
        k(  128) = (   0.3625000   0.2750000   0.0875000), wk =   0.0082988
        k(  129) = (   0.3666667   0.2666667   0.1000000), wk =   0.0082988
        k(  130) = (   0.3708333   0.2583333   0.1125000), wk =   0.0082988
        k(  131) = (   0.3750000   0.2500000   0.1250000), wk =   0.0082988
        k(  132) = (   0.3791667   0.2416667   0.1375000), wk =   0.0082988
        k(  133) = (   0.3833333   0.2333333   0.1500000), wk =   0.0082988
        k(  134) = (   0.3875000   0.2250000   0.1625000), wk =   0.0082988
        k(  135) = (   0.3916667   0.2166667   0.1750000), wk =   0.0082988
        k(  136) = (   0.3958333   0.2083333   0.1875000), wk =   0.0082988
        k(  137) = (   0.4000000   0.2000000   0.2000000), wk =   0.0082988
        k(  138) = (   0.4041667   0.1916667   0.2125000), wk =   0.0082988
        k(  139) = (   0.4083333   0.1833333   0.2250000), wk =   0.0082988
        k(  140) = (   0.4125000   0.1750000   0.2375000), wk =   0.0082988
        k(  141) = (   0.4166667   0.1666667   0.2500000), wk =   0.0082988
        k(  142) = (   0.4208333   0.1583333   0.2625000), wk =   0.0082988
        k(  143) = (   0.4250000   0.1500000   0.2750000), wk =   0.0082988
        k(  144) = (   0.4291667   0.1416667   0.2875000), wk =   0.0082988
        k(  145) = (   0.4333333   0.1333333   0.3000000), wk =   0.0082988
        k(  146) = (   0.4375000   0.1250000   0.3125000), wk =   0.0082988
        k(  147) = (   0.4416667   0.1166667   0.3250000), wk =   0.0082988
        k(  148) = (   0.4458333   0.1083333   0.3375000), wk =   0.0082988
        k(  149) = (   0.4500000   0.1000000   0.3500000), wk =   0.0082988
        k(  150) = (   0.4541667   0.0916667   0.3625000), wk =   0.0082988
        k(  151) = (   0.4583333   0.0833333   0.3750000), wk =   0.0082988
        k(  152) = (   0.4625000   0.0750000   0.3875000), wk =   0.0082988
        k(  153) = (   0.4666667   0.0666667   0.4000000), wk =   0.0082988
        k(  154) = (   0.4708333   0.0583333   0.4125000), wk =   0.0082988
        k(  155) = (   0.4750000   0.0500000   0.4250000), wk =   0.0082988
        k(  156) = (   0.4791667   0.0416667   0.4375000), wk =   0.0082988
        k(  157) = (   0.4833333   0.0333333   0.4500000), wk =   0.0082988
        k(  158) = (   0.4875000   0.0250000   0.4625000), wk =   0.0082988
        k(  159) = (   0.4916667   0.0166667   0.4750000), wk =   0.0082988
        k(  160) = (   0.4958333   0.0083333   0.4875000), wk =   0.0082988
        k(  161) = (   0.5000000   0.0000000   0.5000000), wk =   0.0082988
        k(  162) = (   0.5000000   0.0000000   0.4875000), wk =   0.0082988
        k(  163) = (   0.5000000   0.0000000   0.4750000), wk =   0.0082988
        k(  164) = (   0.5000000   0.0000000   0.4625000), wk =   0.0082988
        k(  165) = (   0.5000000   0.0000000   0.4500000), wk =   0.0082988
        k(  166) = (   0.5000000   0.0000000   0.4375000), wk =   0.0082988
        k(  167) = (   0.5000000   0.0000000   0.4250000), wk =   0.0082988
        k(  168) = (   0.5000000   0.0000000   0.4125000), wk =   0.0082988
        k(  169) = (   0.5000000   0.0000000   0.4000000), wk =   0.0082988
        k(  170) = (   0.5000000   0.0000000   0.3875000), wk =   0.0082988
        k(  171) = (   0.5000000   0.0000000   0.3750000), wk =   0.0082988
        k(  172) = (   0.5000000   0.0000000   0.3625000), wk =   0.0082988
        k(  173) = (   0.5000000   0.0000000   0.3500000), wk =   0.0082988
        k(  174) = (   0.5000000   0.0000000   0.3375000), wk =   0.0082988
        k(  175) = (   0.5000000   0.0000000   0.3250000), wk =   0.0082988
        k(  176) = (   0.5000000   0.0000000   0.3125000), wk =   0.0082988
        k(  177) = (   0.5000000   0.0000000   0.3000000), wk =   0.0082988
        k(  178) = (   0.5000000   0.0000000   0.2875000), wk =   0.0082988
        k(  179) = (   0.5000000   0.0000000   0.2750000), wk =   0.0082988
        k(  180) = (   0.5000000   0.0000000   0.2625000), wk =   0.0082988
        k(  181) = (   0.5000000   0.0000000   0.2500000), wk =   0.0082988
        k(  182) = (   0.5000000   0.0000000   0.2375000), wk =   0.0082988
        k(  183) = (   0.5000000   0.0000000   0.2250000), wk =   0.0082988
        k(  184) = (   0.5000000   0.0000000   0.2125000), wk =   0.0082988
        k(  185) = (   0.5000000   0.0000000   0.2000000), wk =   0.0082988
        k(  186) = (   0.5000000   0.0000000   0.1875000), wk =   0.0082988
        k(  187) = (   0.5000000   0.0000000   0.1750000), wk =   0.0082988
        k(  188) = (   0.5000000   0.0000000   0.1625000), wk =   0.0082988
        k(  189) = (   0.5000000   0.0000000   0.1500000), wk =   0.0082988
        k(  190) = (   0.5000000   0.0000000   0.1375000), wk =   0.0082988
        k(  191) = (   0.5000000   0.0000000   0.1250000), wk =   0.0082988
        k(  192) = (   0.5000000   0.0000000   0.1125000), wk =   0.0082988
        k(  193) = (   0.5000000   0.0000000   0.1000000), wk =   0.0082988
        k(  194) = (   0.5000000   0.0000000   0.0875000), wk =   0.0082988
        k(  195) = (   0.5000000   0.0000000   0.0750000), wk =   0.0082988
        k(  196) = (   0.5000000   0.0000000   0.0625000), wk =   0.0082988
        k(  197) = (   0.5000000   0.0000000   0.0500000), wk =   0.0082988
        k(  198) = (   0.5000000   0.0000000   0.0375000), wk =   0.0082988
        k(  199) = (   0.5000000   0.0000000   0.0250000), wk =   0.0082988
        k(  200) = (   0.5000000   0.0000000   0.0125000), wk =   0.0082988
        k(  201) = (   0.5000000   0.0000000   0.0000000), wk =   0.0082988
        k(  202) = (   0.4875000  -0.0000000   0.0000000), wk =   0.0082988
        k(  203) = (   0.4750000   0.0000000   0.0000000), wk =   0.0082988
        k(  204) = (   0.4625000   0.0000000   0.0000000), wk =   0.0082988
        k(  205) = (   0.4500000   0.0000000   0.0000000), wk =   0.0082988
        k(  206) = (   0.4375000  -0.0000000   0.0000000), wk =   0.0082988
        k(  207) = (   0.4250000  -0.0000000   0.0000000), wk =   0.0082988
        k(  208) = (   0.4125000  -0.0000000   0.0000000), wk =   0.0082988
        k(  209) = (   0.4000000  -0.0000000   0.0000000), wk =   0.0082988
        k(  210) = (   0.3875000   0.0000000   0.0000000), wk =   0.0082988
        k(  211) = (   0.3750000   0.0000000   0.0000000), wk =   0.0082988
        k(  212) = (   0.3625000   0.0000000   0.0000000), wk =   0.0082988
        k(  213) = (   0.3500000   0.0000000   0.0000000), wk =   0.0082988
        k(  214) = (   0.3375000   0.0000000   0.0000000), wk =   0.0082988
        k(  215) = (   0.3250000   0.0000000   0.0000000), wk =   0.0082988
        k(  216) = (   0.3125000   0.0000000   0.0000000), wk =   0.0082988
        k(  217) = (   0.3000000   0.0000000   0.0000000), wk =   0.0082988
        k(  218) = (   0.2875000   0.0000000   0.0000000), wk =   0.0082988
        k(  219) = (   0.2750000   0.0000000   0.0000000), wk =   0.0082988
        k(  220) = (   0.2625000   0.0000000   0.0000000), wk =   0.0082988
        k(  221) = (   0.2500000   0.0000000   0.0000000), wk =   0.0082988
        k(  222) = (   0.2375000   0.0000000   0.0000000), wk =   0.0082988
        k(  223) = (   0.2250000  -0.0000000   0.0000000), wk =   0.0082988
        k(  224) = (   0.2125000  -0.0000000   0.0000000), wk =   0.0082988
        k(  225) = (   0.2000000   0.0000000   0.0000000), wk =   0.0082988
        k(  226) = (   0.1875000   0.0000000   0.0000000), wk =   0.0082988
        k(  227) = (   0.1750000   0.0000000   0.0000000), wk =   0.0082988
        k(  228) = (   0.1625000   0.0000000   0.0000000), wk =   0.0082988
        k(  229) = (   0.1500000   0.0000000   0.0000000), wk =   0.0082988
        k(  230) = (   0.1375000   0.0000000   0.0000000), wk =   0.0082988
        k(  231) = (   0.1250000   0.0000000   0.0000000), wk =   0.0082988
        k(  232) = (   0.1125000  -0.0000000   0.0000000), wk =   0.0082988
        k(  233) = (   0.1000000   0.0000000   0.0000000), wk =   0.0082988
        k(  234) = (   0.0875000   0.0000000   0.0000000), wk =   0.0082988
        k(  235) = (   0.0750000   0.0000000   0.0000000), wk =   0.0082988
        k(  236) = (   0.0625000   0.0000000   0.0000000), wk =   0.0082988
        k(  237) = (   0.0500000   0.0000000   0.0000000), wk =   0.0082988
        k(  238) = (   0.0375000   0.0000000   0.0000000), wk =   0.0082988
        k(  239) = (   0.0250000   0.0000000   0.0000000), wk =   0.0082988
        k(  240) = (   0.0125000  -0.0000000   0.0000000), wk =   0.0082988
        k(  241) = (   0.0000000   0.0000000   0.0000000), wk =   0.0082988

     Dense  grid:    34121 G-vectors     FFT dimensions: (  36,  36,  60)

     Dynamical RAM for                 wfc:       1.04 MB

     Dynamical RAM for     wfc (w. buffer):       1.04 MB

     Dynamical RAM for           str. fact:       1.04 MB

     Dynamical RAM for           local pot:       0.00 MB

     Dynamical RAM for          nlocal pot:       3.39 MB

     Dynamical RAM for                qrad:       2.49 MB

     Dynamical RAM for          rho,v,vnew:       3.34 MB

     Dynamical RAM for           G-vectors:       2.21 MB

     Dynamical RAM for          h,s,v(r/c):       0.05 MB

     Dynamical RAM for          <psi|beta>:       0.01 MB

     Dynamical RAM for                 psi:       2.08 MB

     Dynamical RAM for                hpsi:       2.08 MB

     Dynamical RAM for      wfcinit/wfcrot:       2.09 MB

     Estimated static dynamical RAM per process >      18.04 MB

     Estimated max dynamical RAM per process >      22.27 MB

     The potential is recalculated from file :
     ./SCRATCH/zns_w.save/charge-density

     Starting wfcs are random

     Band Structure Calculation
     Davidson diagonalization with overlap

     Computing kpt #:     1  of   241
     c_bands:  1 eigenvalues not converged
     total cpu time spent up to now is        2.4 secs

     Computing kpt #:     2  of   241
     c_bands:  1 eigenvalues not converged
     total cpu time spent up to now is        4.4 secs

     Computing kpt #:     3  of   241
     c_bands:  1 eigenvalues not converged
     total cpu time spent up to now is        6.6 secs

     Computing kpt #:     4  of   241
     c_bands:  1 eigenvalues not converged
     total cpu time spent up to now is        8.8 secs

     Computing kpt #:     5  of   241
     c_bands:  1 eigenvalues not converged
     total cpu time spent up to now is       10.9 secs

     Computing kpt #:     6  of   241
     c_bands:  1 eigenvalues not converged
     total cpu time spent up to now is       13.0 secs

     Computing kpt #:     7  of   241
     c_bands:  1 eigenvalues not converged
     total cpu time spent up to now is       15.1 secs

     Computing kpt #:     8  of   241
     c_bands:  1 eigenvalues not converged
     total cpu time spent up to now is       17.2 secs

     Computing kpt #:     9  of   241
     c_bands:  1 eigenvalues not converged
     total cpu time spent up to now is       19.2 secs

     Computing kpt #:    10  of   241
     c_bands:  1 eigenvalues not converged
     total cpu time spent up to now is       21.4 secs

     Computing kpt #:    11  of   241
     c_bands:  1 eigenvalues not converged
     total cpu time spent up to now is       23.5 secs

     Computing kpt #:    12  of   241
     c_bands:  1 eigenvalues not converged
     total cpu time spent up to now is       25.7 secs

     Computing kpt #:    13  of   241
     c_bands:  1 eigenvalues not converged
     total cpu time spent up to now is       27.8 secs

     Computing kpt #:    14  of   241
     c_bands:  1 eigenvalues not converged
     total cpu time spent up to now is       29.9 secs

     Computing kpt #:    15  of   241
     c_bands:  1 eigenvalues not converged
     total cpu time spent up to now is       32.0 secs

     Computing kpt #:    16  of   241
     c_bands:  1 eigenvalues not converged
     total cpu time spent up to now is       34.1 secs

     Computing kpt #:    17  of   241
     c_bands:  1 eigenvalues not converged
     total cpu time spent up to now is       36.2 secs

     Computing kpt #:    18  of   241
     c_bands:  1 eigenvalues not converged
     total cpu time spent up to now is       38.3 secs

     Computing kpt #:    19  of   241
     c_bands:  1 eigenvalues not converged
     total cpu time spent up to now is       40.4 secs

     Computing kpt #:    20  of   241
     c_bands:  1 eigenvalues not converged
     total cpu time spent up to now is       42.5 secs

     Computing kpt #:    21  of   241
     c_bands:  1 eigenvalues not converged
     total cpu time spent up to now is       44.5 secs

     Computing kpt #:    22  of   241
     c_bands:  1 eigenvalues not converged
     total cpu time spent up to now is       46.7 secs

     Computing kpt #:    23  of   241
     c_bands:  1 eigenvalues not converged
     total cpu time spent up to now is       48.7 secs

     Computing kpt #:    24  of   241
     c_bands:  1 eigenvalues not converged
     total cpu time spent up to now is       50.8 secs

     Computing kpt #:    25  of   241
     total cpu time spent up to now is       52.9 secs

     Computing kpt #:    26  of   241
     c_bands:  1 eigenvalues not converged
     total cpu time spent up to now is       54.9 secs

     Computing kpt #:    27  of   241
     c_bands:  1 eigenvalues not converged
     total cpu time spent up to now is       57.0 secs

     Computing kpt #:    28  of   241
     c_bands:  1 eigenvalues not converged
     total cpu time spent up to now is       59.1 secs

     Computing kpt #:    29  of   241
     total cpu time spent up to now is       61.2 secs

     Computing kpt #:    30  of   241
     c_bands:  1 eigenvalues not converged
     total cpu time spent up to now is       63.3 secs

     Computing kpt #:    31  of   241
     c_bands:  1 eigenvalues not converged
     total cpu time spent up to now is       65.4 secs

     Computing kpt #:    32  of   241
     c_bands:  1 eigenvalues not converged
     total cpu time spent up to now is       67.6 secs

     Computing kpt #:    33  of   241
     c_bands:  1 eigenvalues not converged
     total cpu time spent up to now is       69.7 secs

     Computing kpt #:    34  of   241
     c_bands:  1 eigenvalues not converged
     total cpu time spent up to now is       71.8 secs

     Computing kpt #:    35  of   241
     c_bands:  1 eigenvalues not converged
     total cpu time spent up to now is       73.9 secs

     Computing kpt #:    36  of   241
     c_bands:  1 eigenvalues not converged
     total cpu time spent up to now is       76.0 secs

     Computing kpt #:    37  of   241
     c_bands:  1 eigenvalues not converged
     total cpu time spent up to now is       78.2 secs

     Computing kpt #:    38  of   241
     c_bands:  1 eigenvalues not converged
     total cpu time spent up to now is       80.3 secs

     Computing kpt #:    39  of   241
     c_bands:  1 eigenvalues not converged
     total cpu time spent up to now is       82.4 secs

     Computing kpt #:    40  of   241
     c_bands:  1 eigenvalues not converged
     total cpu time spent up to now is       84.5 secs

     Computing kpt #:    41  of   241
     c_bands:  1 eigenvalues not converged
     total cpu time spent up to now is       86.6 secs

     Computing kpt #:    42  of   241
     c_bands:  1 eigenvalues not converged
     total cpu time spent up to now is       88.7 secs

     Computing kpt #:    43  of   241
     c_bands:  1 eigenvalues not converged
     total cpu time spent up to now is       90.8 secs

     Computing kpt #:    44  of   241
     c_bands:  1 eigenvalues not converged
     total cpu time spent up to now is       92.8 secs

     Computing kpt #:    45  of   241
     c_bands:  1 eigenvalues not converged
     total cpu time spent up to now is       95.0 secs

     Computing kpt #:    46  of   241
     c_bands:  1 eigenvalues not converged
     total cpu time spent up to now is       97.2 secs

     Computing kpt #:    47  of   241
     c_bands:  1 eigenvalues not converged
     total cpu time spent up to now is       99.3 secs

     Computing kpt #:    48  of   241
     c_bands:  1 eigenvalues not converged
     total cpu time spent up to now is      101.4 secs

     Computing kpt #:    49  of   241
     c_bands:  1 eigenvalues not converged
     total cpu time spent up to now is      103.6 secs

     Computing kpt #:    50  of   241
     c_bands:  1 eigenvalues not converged
     total cpu time spent up to now is      105.7 secs

     Computing kpt #:    51  of   241
     c_bands:  1 eigenvalues not converged
     total cpu time spent up to now is      107.8 secs

     Computing kpt #:    52  of   241
     c_bands:  1 eigenvalues not converged
     total cpu time spent up to now is      109.9 secs

     Computing kpt #:    53  of   241
     c_bands:  1 eigenvalues not converged
     total cpu time spent up to now is      112.1 secs

     Computing kpt #:    54  of   241
     c_bands:  1 eigenvalues not converged
     total cpu time spent up to now is      114.2 secs

     Computing kpt #:    55  of   241
     c_bands:  1 eigenvalues not converged
     total cpu time spent up to now is      116.3 secs

     Computing kpt #:    56  of   241
     c_bands:  1 eigenvalues not converged
     total cpu time spent up to now is      118.4 secs

     Computing kpt #:    57  of   241
     c_bands:  1 eigenvalues not converged
     total cpu time spent up to now is      120.6 secs

     Computing kpt #:    58  of   241
     c_bands:  1 eigenvalues not converged
     total cpu time spent up to now is      122.7 secs

     Computing kpt #:    59  of   241
     c_bands:  1 eigenvalues not converged
     total cpu time spent up to now is      124.8 secs

     Computing kpt #:    60  of   241
     c_bands:  1 eigenvalues not converged
     total cpu time spent up to now is      127.0 secs

     Computing kpt #:    61  of   241
     c_bands:  1 eigenvalues not converged
     total cpu time spent up to now is      129.1 secs

     Computing kpt #:    62  of   241
     c_bands:  1 eigenvalues not converged
     total cpu time spent up to now is      131.2 secs

     Computing kpt #:    63  of   241
     c_bands:  1 eigenvalues not converged
     total cpu time spent up to now is      133.3 secs

     Computing kpt #:    64  of   241
     c_bands:  1 eigenvalues not converged
     total cpu time spent up to now is      135.4 secs

     Computing kpt #:    65  of   241
     c_bands:  1 eigenvalues not converged
     total cpu time spent up to now is      137.4 secs

     Computing kpt #:    66  of   241
     c_bands:  1 eigenvalues not converged
     total cpu time spent up to now is      139.5 secs

     Computing kpt #:    67  of   241
     c_bands:  1 eigenvalues not converged
     total cpu time spent up to now is      141.6 secs

     Computing kpt #:    68  of   241
     c_bands:  1 eigenvalues not converged
     total cpu time spent up to now is      143.8 secs

     Computing kpt #:    69  of   241
     c_bands:  1 eigenvalues not converged
     total cpu time spent up to now is      145.9 secs

     Computing kpt #:    70  of   241
     c_bands:  1 eigenvalues not converged
     total cpu time spent up to now is      148.0 secs

     Computing kpt #:    71  of   241
     c_bands:  1 eigenvalues not converged
     total cpu time spent up to now is      150.1 secs

     Computing kpt #:    72  of   241
     c_bands:  1 eigenvalues not converged
     total cpu time spent up to now is      152.3 secs

     Computing kpt #:    73  of   241
     c_bands:  1 eigenvalues not converged
     total cpu time spent up to now is      154.4 secs

     Computing kpt #:    74  of   241
     c_bands:  1 eigenvalues not converged
     total cpu time spent up to now is      156.5 secs

     Computing kpt #:    75  of   241
     c_bands:  1 eigenvalues not converged
     total cpu time spent up to now is      158.5 secs

     Computing kpt #:    76  of   241
     c_bands:  1 eigenvalues not converged
     total cpu time spent up to now is      160.6 secs

     Computing kpt #:    77  of   241
     c_bands:  1 eigenvalues not converged
     total cpu time spent up to now is      162.7 secs

     Computing kpt #:    78  of   241
     c_bands:  2 eigenvalues not converged
     total cpu time spent up to now is      164.8 secs

     Computing kpt #:    79  of   241
     c_bands:  1 eigenvalues not converged
     total cpu time spent up to now is      166.9 secs

     Computing kpt #:    80  of   241
     c_bands:  1 eigenvalues not converged
     total cpu time spent up to now is      169.0 secs

     Computing kpt #:    81  of   241
     c_bands:  1 eigenvalues not converged
     total cpu time spent up to now is      171.2 secs

     Computing kpt #:    82  of   241
     c_bands:  1 eigenvalues not converged
     total cpu time spent up to now is      173.2 secs

     Computing kpt #:    83  of   241
     c_bands:  1 eigenvalues not converged
     total cpu time spent up to now is      175.4 secs

     Computing kpt #:    84  of   241
     c_bands:  1 eigenvalues not converged
     total cpu time spent up to now is      177.5 secs

     Computing kpt #:    85  of   241
     c_bands:  1 eigenvalues not converged
     total cpu time spent up to now is      179.6 secs

     Computing kpt #:    86  of   241
     c_bands:  1 eigenvalues not converged
     total cpu time spent up to now is      181.6 secs

     Computing kpt #:    87  of   241
     c_bands:  1 eigenvalues not converged
     total cpu time spent up to now is      183.7 secs

     Computing kpt #:    88  of   241
     c_bands:  1 eigenvalues not converged
     total cpu time spent up to now is      185.8 secs

     Computing kpt #:    89  of   241
     c_bands:  1 eigenvalues not converged
     total cpu time spent up to now is      187.9 secs

     Computing kpt #:    90  of   241
     c_bands:  1 eigenvalues not converged
     total cpu time spent up to now is      190.0 secs

     Computing kpt #:    91  of   241
     c_bands:  1 eigenvalues not converged
     total cpu time spent up to now is      192.1 secs

     Computing kpt #:    92  of   241
     c_bands:  1 eigenvalues not converged
     total cpu time spent up to now is      194.2 secs

     Computing kpt #:    93  of   241
     c_bands:  1 eigenvalues not converged
     total cpu time spent up to now is      196.3 secs

     Computing kpt #:    94  of   241
     c_bands:  1 eigenvalues not converged
     total cpu time spent up to now is      198.4 secs

     Computing kpt #:    95  of   241
     c_bands:  1 eigenvalues not converged
     total cpu time spent up to now is      200.4 secs

     Computing kpt #:    96  of   241
     c_bands:  1 eigenvalues not converged
     total cpu time spent up to now is      202.5 secs

     Computing kpt #:    97  of   241
     c_bands:  1 eigenvalues not converged
     total cpu time spent up to now is      204.6 secs

     Computing kpt #:    98  of   241
     c_bands:  1 eigenvalues not converged
     total cpu time spent up to now is      206.7 secs

     Computing kpt #:    99  of   241
     c_bands:  1 eigenvalues not converged
     total cpu time spent up to now is      208.8 secs

     Computing kpt #:   100  of   241
     c_bands:  1 eigenvalues not converged
     total cpu time spent up to now is      210.8 secs

     Computing kpt #:   101  of   241
     c_bands:  1 eigenvalues not converged
     total cpu time spent up to now is      212.9 secs

     Computing kpt #:   102  of   241
     c_bands:  1 eigenvalues not converged
     total cpu time spent up to now is      215.1 secs

     Computing kpt #:   103  of   241
     c_bands:  1 eigenvalues not converged
     total cpu time spent up to now is      217.2 secs

     Computing kpt #:   104  of   241
     c_bands:  1 eigenvalues not converged
     total cpu time spent up to now is      219.2 secs

     Computing kpt #:   105  of   241
     c_bands:  1 eigenvalues not converged
     total cpu time spent up to now is      221.3 secs

     Computing kpt #:   106  of   241
     c_bands:  1 eigenvalues not converged
     total cpu time spent up to now is      223.5 secs

     Computing kpt #:   107  of   241
     c_bands:  1 eigenvalues not converged
     total cpu time spent up to now is      225.6 secs

     Computing kpt #:   108  of   241
     c_bands:  1 eigenvalues not converged
     total cpu time spent up to now is      227.6 secs

     Computing kpt #:   109  of   241
     c_bands:  1 eigenvalues not converged
     total cpu time spent up to now is      229.7 secs

     Computing kpt #:   110  of   241
     c_bands:  1 eigenvalues not converged
     total cpu time spent up to now is      231.7 secs

     Computing kpt #:   111  of   241
     c_bands:  1 eigenvalues not converged
     total cpu time spent up to now is      233.8 secs

     Computing kpt #:   112  of   241
     c_bands:  1 eigenvalues not converged
     total cpu time spent up to now is      235.8 secs

     Computing kpt #:   113  of   241
     c_bands:  1 eigenvalues not converged
     total cpu time spent up to now is      237.9 secs

     Computing kpt #:   114  of   241
     c_bands:  1 eigenvalues not converged
     total cpu time spent up to now is      240.1 secs

     Computing kpt #:   115  of   241
     c_bands:  1 eigenvalues not converged
     total cpu time spent up to now is      242.2 secs

     Computing kpt #:   116  of   241
     c_bands:  1 eigenvalues not converged
     total cpu time spent up to now is      244.3 secs

     Computing kpt #:   117  of   241
     c_bands:  1 eigenvalues not converged
     total cpu time spent up to now is      246.3 secs

     Computing kpt #:   118  of   241
     c_bands:  1 eigenvalues not converged
     total cpu time spent up to now is      248.3 secs

     Computing kpt #:   119  of   241
     c_bands:  1 eigenvalues not converged
     total cpu time spent up to now is      250.4 secs

     Computing kpt #:   120  of   241
     c_bands:  1 eigenvalues not converged
     total cpu time spent up to now is      252.5 secs

     Computing kpt #:   121  of   241
     c_bands:  1 eigenvalues not converged
     total cpu time spent up to now is      254.7 secs

     Computing kpt #:   122  of   241
     c_bands:  1 eigenvalues not converged
     total cpu time spent up to now is      256.8 secs

     Computing kpt #:   123  of   241
     c_bands:  1 eigenvalues not converged
     total cpu time spent up to now is      258.8 secs

     Computing kpt #:   124  of   241
     c_bands:  1 eigenvalues not converged
     total cpu time spent up to now is      261.0 secs

     Computing kpt #:   125  of   241
     c_bands:  1 eigenvalues not converged
     total cpu time spent up to now is      263.1 secs

     Computing kpt #:   126  of   241
     c_bands:  1 eigenvalues not converged
     total cpu time spent up to now is      265.2 secs

     Computing kpt #:   127  of   241
     c_bands:  1 eigenvalues not converged
     total cpu time spent up to now is      267.3 secs

     Computing kpt #:   128  of   241
     c_bands:  1 eigenvalues not converged
     total cpu time spent up to now is      269.5 secs

     Computing kpt #:   129  of   241
     c_bands:  1 eigenvalues not converged
     total cpu time spent up to now is      271.5 secs

     Computing kpt #:   130  of   241
     c_bands:  1 eigenvalues not converged
     total cpu time spent up to now is      273.7 secs

     Computing kpt #:   131  of   241
     c_bands:  1 eigenvalues not converged
     total cpu time spent up to now is      275.8 secs

     Computing kpt #:   132  of   241
     c_bands:  1 eigenvalues not converged
     total cpu time spent up to now is      277.9 secs

     Computing kpt #:   133  of   241
     c_bands:  1 eigenvalues not converged
     total cpu time spent up to now is      280.1 secs

     Computing kpt #:   134  of   241
     c_bands:  1 eigenvalues not converged
     total cpu time spent up to now is      282.2 secs

     Computing kpt #:   135  of   241
     c_bands:  1 eigenvalues not converged
     total cpu time spent up to now is      284.3 secs

     Computing kpt #:   136  of   241
     c_bands:  1 eigenvalues not converged
     total cpu time spent up to now is      286.4 secs

     Computing kpt #:   137  of   241
     c_bands:  1 eigenvalues not converged
     total cpu time spent up to now is      288.4 secs

     Computing kpt #:   138  of   241
     c_bands:  1 eigenvalues not converged
     total cpu time spent up to now is      290.5 secs

     Computing kpt #:   139  of   241
     c_bands:  1 eigenvalues not converged
     total cpu time spent up to now is      292.6 secs

     Computing kpt #:   140  of   241
     c_bands:  1 eigenvalues not converged
     total cpu time spent up to now is      294.6 secs

     Computing kpt #:   141  of   241
     c_bands:  1 eigenvalues not converged
     total cpu time spent up to now is      296.7 secs

     Computing kpt #:   142  of   241
     c_bands:  1 eigenvalues not converged
     total cpu time spent up to now is      298.8 secs

     Computing kpt #:   143  of   241
     c_bands:  1 eigenvalues not converged
     total cpu time spent up to now is      301.0 secs

     Computing kpt #:   144  of   241
     c_bands:  1 eigenvalues not converged
     total cpu time spent up to now is      303.1 secs

     Computing kpt #:   145  of   241
     c_bands:  1 eigenvalues not converged
     total cpu time spent up to now is      305.2 secs

     Computing kpt #:   146  of   241
     c_bands:  1 eigenvalues not converged
     total cpu time spent up to now is      307.3 secs

     Computing kpt #:   147  of   241
     c_bands:  1 eigenvalues not converged
     total cpu time spent up to now is      309.4 secs

     Computing kpt #:   148  of   241
     c_bands:  1 eigenvalues not converged
     total cpu time spent up to now is      311.4 secs

     Computing kpt #:   149  of   241
     c_bands:  1 eigenvalues not converged
     total cpu time spent up to now is      313.5 secs

     Computing kpt #:   150  of   241
     c_bands:  1 eigenvalues not converged
     total cpu time spent up to now is      315.7 secs

     Computing kpt #:   151  of   241
     c_bands:  1 eigenvalues not converged
     total cpu time spent up to now is      317.7 secs

     Computing kpt #:   152  of   241
     c_bands:  1 eigenvalues not converged
     total cpu time spent up to now is      319.7 secs

     Computing kpt #:   153  of   241
     c_bands:  1 eigenvalues not converged
     total cpu time spent up to now is      321.8 secs

     Computing kpt #:   154  of   241
     c_bands:  1 eigenvalues not converged
     total cpu time spent up to now is      323.8 secs

     Computing kpt #:   155  of   241
     c_bands:  1 eigenvalues not converged
     total cpu time spent up to now is      325.9 secs

     Computing kpt #:   156  of   241
     c_bands:  2 eigenvalues not converged
     total cpu time spent up to now is      328.1 secs

     Computing kpt #:   157  of   241
     c_bands:  1 eigenvalues not converged
     total cpu time spent up to now is      330.2 secs

     Computing kpt #:   158  of   241
     c_bands:  1 eigenvalues not converged
     total cpu time spent up to now is      332.3 secs

     Computing kpt #:   159  of   241
     c_bands:  1 eigenvalues not converged
     total cpu time spent up to now is      334.4 secs

     Computing kpt #:   160  of   241
     c_bands:  1 eigenvalues not converged
     total cpu time spent up to now is      336.4 secs

     Computing kpt #:   161  of   241
     c_bands:  1 eigenvalues not converged
     total cpu time spent up to now is      338.5 secs

     Computing kpt #:   162  of   241
     c_bands:  1 eigenvalues not converged
     total cpu time spent up to now is      340.6 secs

     Computing kpt #:   163  of   241
     c_bands:  1 eigenvalues not converged
     total cpu time spent up to now is      342.6 secs

     Computing kpt #:   164  of   241
     c_bands:  1 eigenvalues not converged
     total cpu time spent up to now is      344.6 secs

     Computing kpt #:   165  of   241
     c_bands:  1 eigenvalues not converged
     total cpu time spent up to now is      346.7 secs

     Computing kpt #:   166  of   241
     c_bands:  1 eigenvalues not converged
     total cpu time spent up to now is      348.7 secs

     Computing kpt #:   167  of   241
     c_bands:  1 eigenvalues not converged
     total cpu time spent up to now is      350.8 secs

     Computing kpt #:   168  of   241
     c_bands:  1 eigenvalues not converged
     total cpu time spent up to now is      352.9 secs

     Computing kpt #:   169  of   241
     c_bands:  1 eigenvalues not converged
     total cpu time spent up to now is      354.9 secs

     Computing kpt #:   170  of   241
     c_bands:  1 eigenvalues not converged
     total cpu time spent up to now is      356.9 secs

     Computing kpt #:   171  of   241
     c_bands:  1 eigenvalues not converged
     total cpu time spent up to now is      359.0 secs

     Computing kpt #:   172  of   241
     c_bands:  1 eigenvalues not converged
     total cpu time spent up to now is      361.0 secs

     Computing kpt #:   173  of   241
     c_bands:  1 eigenvalues not converged
     total cpu time spent up to now is      363.1 secs

     Computing kpt #:   174  of   241
     c_bands:  1 eigenvalues not converged
     total cpu time spent up to now is      365.2 secs

     Computing kpt #:   175  of   241
     c_bands:  1 eigenvalues not converged
     total cpu time spent up to now is      367.3 secs

     Computing kpt #:   176  of   241
     c_bands:  1 eigenvalues not converged
     total cpu time spent up to now is      369.4 secs

     Computing kpt #:   177  of   241
     c_bands:  1 eigenvalues not converged
     total cpu time spent up to now is      371.4 secs

     Computing kpt #:   178  of   241
     c_bands:  1 eigenvalues not converged
     total cpu time spent up to now is      373.6 secs

     Computing kpt #:   179  of   241
     c_bands:  1 eigenvalues not converged
     total cpu time spent up to now is      375.6 secs

     Computing kpt #:   180  of   241
     c_bands:  1 eigenvalues not converged
     total cpu time spent up to now is      377.6 secs

     Computing kpt #:   181  of   241
     c_bands:  1 eigenvalues not converged
     total cpu time spent up to now is      379.7 secs

     Computing kpt #:   182  of   241
     c_bands:  1 eigenvalues not converged
     total cpu time spent up to now is      381.8 secs

     Computing kpt #:   183  of   241
     c_bands:  1 eigenvalues not converged
     total cpu time spent up to now is      383.9 secs

     Computing kpt #:   184  of   241
     c_bands:  1 eigenvalues not converged
     total cpu time spent up to now is      385.9 secs

     Computing kpt #:   185  of   241
     c_bands:  1 eigenvalues not converged
     total cpu time spent up to now is      387.9 secs

     Computing kpt #:   186  of   241
     c_bands:  1 eigenvalues not converged
     total cpu time spent up to now is      390.0 secs

     Computing kpt #:   187  of   241
     c_bands:  1 eigenvalues not converged
     total cpu time spent up to now is      392.1 secs

     Computing kpt #:   188  of   241
     c_bands:  1 eigenvalues not converged
     total cpu time spent up to now is      394.2 secs

     Computing kpt #:   189  of   241
     c_bands:  1 eigenvalues not converged
     total cpu time spent up to now is      396.3 secs

     Computing kpt #:   190  of   241
     c_bands:  1 eigenvalues not converged
     total cpu time spent up to now is      398.4 secs

     Computing kpt #:   191  of   241
     c_bands:  1 eigenvalues not converged
     total cpu time spent up to now is      400.5 secs

     Computing kpt #:   192  of   241
     c_bands:  1 eigenvalues not converged
     total cpu time spent up to now is      402.6 secs

     Computing kpt #:   193  of   241
     c_bands:  1 eigenvalues not converged
     total cpu time spent up to now is      404.7 secs

     Computing kpt #:   194  of   241
     c_bands:  1 eigenvalues not converged
     total cpu time spent up to now is      406.8 secs

     Computing kpt #:   195  of   241
     c_bands:  1 eigenvalues not converged
     total cpu time spent up to now is      409.0 secs

     Computing kpt #:   196  of   241
     c_bands:  1 eigenvalues not converged
     total cpu time spent up to now is      411.0 secs

     Computing kpt #:   197  of   241
     c_bands:  1 eigenvalues not converged
     total cpu time spent up to now is      413.2 secs

     Computing kpt #:   198  of   241
     c_bands:  1 eigenvalues not converged
     total cpu time spent up to now is      415.2 secs

     Computing kpt #:   199  of   241
     c_bands:  1 eigenvalues not converged
     total cpu time spent up to now is      417.4 secs

     Computing kpt #:   200  of   241
     c_bands:  1 eigenvalues not converged
     total cpu time spent up to now is      419.4 secs

     Computing kpt #:   201  of   241
     c_bands:  1 eigenvalues not converged
     total cpu time spent up to now is      421.5 secs

     Computing kpt #:   202  of   241
     c_bands:  1 eigenvalues not converged
     total cpu time spent up to now is      423.6 secs

     Computing kpt #:   203  of   241
     c_bands:  1 eigenvalues not converged
     total cpu time spent up to now is      425.6 secs

     Computing kpt #:   204  of   241
     c_bands:  1 eigenvalues not converged
     total cpu time spent up to now is      427.8 secs

     Computing kpt #:   205  of   241
     c_bands:  1 eigenvalues not converged
     total cpu time spent up to now is      429.9 secs

     Computing kpt #:   206  of   241
     c_bands:  1 eigenvalues not converged
     total cpu time spent up to now is      432.0 secs

     Computing kpt #:   207  of   241
     c_bands:  1 eigenvalues not converged
     total cpu time spent up to now is      434.1 secs

     Computing kpt #:   208  of   241
     c_bands:  1 eigenvalues not converged
     total cpu time spent up to now is      436.2 secs

     Computing kpt #:   209  of   241
     c_bands:  1 eigenvalues not converged
     total cpu time spent up to now is      438.3 secs

     Computing kpt #:   210  of   241
     c_bands:  1 eigenvalues not converged
     total cpu time spent up to now is      440.4 secs

     Computing kpt #:   211  of   241
     c_bands:  1 eigenvalues not converged
     total cpu time spent up to now is      442.6 secs

     Computing kpt #:   212  of   241
     c_bands:  1 eigenvalues not converged
     total cpu time spent up to now is      444.7 secs

     Computing kpt #:   213  of   241
     c_bands:  1 eigenvalues not converged
     total cpu time spent up to now is      446.9 secs

     Computing kpt #:   214  of   241
     c_bands:  1 eigenvalues not converged
     total cpu time spent up to now is      448.9 secs

     Computing kpt #:   215  of   241
     c_bands:  1 eigenvalues not converged
     total cpu time spent up to now is      451.0 secs

     Computing kpt #:   216  of   241
     c_bands:  1 eigenvalues not converged
     total cpu time spent up to now is      453.2 secs

     Computing kpt #:   217  of   241
     c_bands:  1 eigenvalues not converged
     total cpu time spent up to now is      455.3 secs

     Computing kpt #:   218  of   241
     c_bands:  1 eigenvalues not converged
     total cpu time spent up to now is      457.4 secs

     Computing kpt #:   219  of   241
     c_bands:  1 eigenvalues not converged
     total cpu time spent up to now is      459.5 secs

     Computing kpt #:   220  of   241
     c_bands:  1 eigenvalues not converged
     total cpu time spent up to now is      461.6 secs

     Computing kpt #:   221  of   241
     c_bands:  1 eigenvalues not converged
     total cpu time spent up to now is      463.7 secs

     Computing kpt #:   222  of   241
     c_bands:  1 eigenvalues not converged
     total cpu time spent up to now is      465.9 secs

     Computing kpt #:   223  of   241
     c_bands:  1 eigenvalues not converged
     total cpu time spent up to now is      468.0 secs

     Computing kpt #:   224  of   241
     c_bands:  1 eigenvalues not converged
     total cpu time spent up to now is      470.0 secs

     Computing kpt #:   225  of   241
     c_bands:  1 eigenvalues not converged
     total cpu time spent up to now is      472.1 secs

     Computing kpt #:   226  of   241
     c_bands:  1 eigenvalues not converged
     total cpu time spent up to now is      474.3 secs

     Computing kpt #:   227  of   241
     c_bands:  1 eigenvalues not converged
     total cpu time spent up to now is      476.5 secs

     Computing kpt #:   228  of   241
     c_bands:  1 eigenvalues not converged
     total cpu time spent up to now is      478.7 secs

     Computing kpt #:   229  of   241
     c_bands:  1 eigenvalues not converged
     total cpu time spent up to now is      480.8 secs

     Computing kpt #:   230  of   241
     c_bands:  1 eigenvalues not converged
     total cpu time spent up to now is      482.8 secs

     Computing kpt #:   231  of   241
     c_bands:  1 eigenvalues not converged
     total cpu time spent up to now is      485.0 secs

     Computing kpt #:   232  of   241
     c_bands:  1 eigenvalues not converged
     total cpu time spent up to now is      487.0 secs

     Computing kpt #:   233  of   241
     c_bands:  1 eigenvalues not converged
     total cpu time spent up to now is      489.2 secs

     Computing kpt #:   234  of   241
     c_bands:  1 eigenvalues not converged
     total cpu time spent up to now is      491.2 secs

     Computing kpt #:   235  of   241
     c_bands:  1 eigenvalues not converged
     total cpu time spent up to now is      493.4 secs

     Computing kpt #:   236  of   241
     c_bands:  2 eigenvalues not converged
     total cpu time spent up to now is      495.6 secs

     Computing kpt #:   237  of   241
     c_bands:  1 eigenvalues not converged
     total cpu time spent up to now is      497.7 secs

     Computing kpt #:   238  of   241
     c_bands:  1 eigenvalues not converged
     total cpu time spent up to now is      499.8 secs

     Computing kpt #:   239  of   241
     c_bands:  1 eigenvalues not converged
     total cpu time spent up to now is      501.9 secs

     Computing kpt #:   240  of   241
     c_bands:  1 eigenvalues not converged
     total cpu time spent up to now is      504.0 secs

     Computing kpt #:   241  of   241
     c_bands:  1 eigenvalues not converged
     total cpu time spent up to now is      506.1 secs

     ethr =  1.92E-10,  avg # of iterations =120.0

     total cpu time spent up to now is      506.1 secs

     End of band structure calculation

          k = 0.0000 0.0000 0.0000 (  4247 PWs)   bands (ev):

  -121.5250-120.6540 -76.8900 -75.9557 -75.3407 -75.3407 -74.5722 -74.5722
    -9.5122  -6.8840  -4.1482  -4.0689  -4.0689  -2.9239  -2.9239  -1.7340

          k = 0.0000 0.0000 0.0076 (  4259 PWs)   bands (ev):

  -121.5250-120.6540 -76.8900 -75.9557 -75.3407 -75.3407 -74.5722 -74.5722
    -9.5122  -6.8841  -4.1484  -4.0690  -4.0690  -2.9241  -2.9241  -1.7339

          k = 0.0000 0.0000 0.0153 (  4259 PWs)   bands (ev):

  -121.5250-120.6540 -76.8900 -75.9557 -75.3407 -75.3407 -74.5722 -74.5722
    -9.5121  -6.8842  -4.1485  -4.0690  -4.0690  -2.9241  -2.9241  -1.7340

          k = 0.0000 0.0000 0.0229 (  4259 PWs)   bands (ev):

  -121.5250-120.6540 -76.8900 -75.9557 -75.3407 -75.3407 -74.5722 -74.5722
    -9.5120  -6.8843  -4.1486  -4.0690  -4.0690  -2.9241  -2.9241  -1.7340

          k = 0.0000 0.0000 0.0305 (  4259 PWs)   bands (ev):

  -121.5250-120.6540 -76.8900 -75.9558 -75.3407 -75.3407 -74.5722 -74.5722
    -9.5119  -6.8845  -4.1487  -4.0690  -4.0690  -2.9241  -2.9241  -1.7340

          k = 0.0000 0.0000 0.0381 (  4259 PWs)   bands (ev):

  -121.5250-120.6540 -76.8900 -75.9558 -75.3407 -75.3407 -74.5722 -74.5722
    -9.5118  -6.8847  -4.1488  -4.0689  -4.0689  -2.9241  -2.9241  -1.7340

          k = 0.0000 0.0000 0.0458 (  4259 PWs)   bands (ev):

  -121.5250-120.6540 -76.8900 -75.9558 -75.3407 -75.3407 -74.5722 -74.5722
    -9.5116  -6.8849  -4.1490  -4.0689  -4.0689  -2.9242  -2.9242  -1.7339

          k = 0.0000 0.0000 0.0534 (  4259 PWs)   bands (ev):

  -121.5250-120.6540 -76.8900 -75.9558 -75.3407 -75.3407 -74.5722 -74.5722
[...]

  -121.5250-120.6540 -76.8900 -75.9558 -75.3408 -75.3407 -74.5724 -74.5723
    -9.1288  -6.8227  -4.2359  -4.0898  -3.6537  -3.0531  -2.9191  -1.7858

          k = 0.4958 0.2959 0.2975 (  4276 PWs)   bands (ev):

  -121.5250-120.6540 -76.8900 -75.9558 -75.3408 -75.3407 -74.5724 -74.5723
    -9.1289  -6.8227  -4.2361  -4.0897  -3.6540  -3.0532  -2.9191  -1.7883

          k = 0.5000 0.2887 0.3051 (  4272 PWs)   bands (ev):

  -121.5250-120.6540 -76.8900 -75.9557 -75.3408 -75.3407 -74.5724 -74.5723
    -9.1290  -6.8227  -4.2360  -4.0897  -3.6539  -3.0530  -2.9192  -1.7883

          k = 0.5000 0.2887 0.2975 (  4280 PWs)   bands (ev):

  -121.5250-120.6540 -76.8900 -75.9558 -75.3408 -75.3407 -74.5724 -74.5723
    -9.1290  -6.8228  -4.2362  -4.0898  -3.6541  -3.0533  -2.9193  -1.7867

          k = 0.5000 0.2887 0.2899 (  4276 PWs)   bands (ev):

  -121.5250-120.6540 -76.8900 -75.9558 -75.3408 -75.3407 -74.5724 -74.5723
    -9.1290  -6.8227  -4.2361  -4.0896  -3.6540  -3.0532  -2.9190  -1.7881

          k = 0.5000 0.2887 0.2822 (  4272 PWs)   bands (ev):

  -121.5250-120.6540 -76.8900 -75.9558 -75.3408 -75.3407 -74.5724 -74.5723
    -9.1290  -6.8228  -4.2362  -4.0894  -3.6540  -3.0533  -2.9188  -1.7878

          k = 0.5000 0.2887 0.2746 (  4276 PWs)   bands (ev):

  -121.5250-120.6540 -76.8900 -75.9558 -75.3408 -75.3407 -74.5724 -74.5723
    -9.1291  -6.8228  -4.2362  -4.0894  -3.6541  -3.0533  -2.9188  -1.7878

          k = 0.5000 0.2887 0.2670 (  4276 PWs)   bands (ev):

  -121.5250-120.6540 -76.8900 -75.9558 -75.3408 -75.3407 -74.5724 -74.5723
    -9.1291  -6.8228  -4.2362  -4.0895  -3.6540  -3.0532  -2.9187  -1.7881

          k = 0.5000 0.2887 0.2593 (  4272 PWs)   bands (ev):

  -121.5250-120.6540 -76.8900 -75.9558 -75.3408 -75.3407 -74.5724 -74.5723
    -9.1292  -6.8229  -4.2361  -4.0893  -3.6539  -3.0531  -2.9184  -1.7871

          k = 0.5000 0.2887 0.2517 (  4270 PWs)   bands (ev):

  -121.5250-120.6540 -76.8900 -75.9558 -75.3408 -75.3407 -74.5724 -74.5723
    -9.1293  -6.8229  -4.2361  -4.0893  -3.6537  -3.0530  -2.9183  -1.7879

          k = 0.5000 0.2887 0.2441 (  4262 PWs)   bands (ev):

  -121.5250-120.6540 -76.8900 -75.9558 -75.3408 -75.3407 -74.5724 -74.5723
    -9.1293  -6.8229  -4.2360  -4.0893  -3.6534  -3.0530  -2.9182  -1.7878

          k = 0.5000 0.2887 0.2365 (  4264 PWs)   bands (ev):

  -121.5250-120.6540 -76.8900 -75.9558 -75.3408 -75.3407 -74.5724 -74.5723
    -9.1294  -6.8229  -4.2360  -4.0893  -3.6533  -3.0529  -2.9180  -1.7877

          k = 0.5000 0.2887 0.2288 (  4264 PWs)   bands (ev):

  -121.5250-120.6540 -76.8900 -75.9558 -75.3408 -75.3407 -74.5724 -74.5723
    -9.1295  -6.8229  -4.2360  -4.0894  -3.6531  -3.0528  -2.9179  -1.7870

          k = 0.5000 0.2887 0.2212 (  4264 PWs)   bands (ev):

  -121.5250-120.6540 -76.8900 -75.9558 -75.3408 -75.3407 -74.5724 -74.5723
    -9.1296  -6.8229  -4.2359  -4.0894  -3.6528  -3.0528  -2.9178  -1.7876

          k = 0.5000 0.2887 0.2136 (  4258 PWs)   bands (ev):

  -121.5250-120.6540 -76.8900 -75.9557 -75.3408 -75.3407 -74.5724 -74.5723
    -9.1297  -6.8229  -4.2359  -4.0894  -3.6525  -3.0527  -2.9176  -1.7858

          k = 0.5000 0.2887 0.2060 (  4256 PWs)   bands (ev):

  -121.5250-120.6540 -76.8900 -75.9557 -75.3408 -75.3407 -74.5724 -74.5723
    -9.1298  -6.8229  -4.2359  -4.0894  -3.6522  -3.0526  -2.9174  -1.7874

          k = 0.5000 0.2887 0.1983 (  4264 PWs)   bands (ev):

  -121.5250-120.6540 -76.8900 -75.9558 -75.3408 -75.3407 -74.5724 -74.5723
    -9.1300  -6.8229  -4.2360  -4.0895  -3.6520  -3.0526  -2.9175  -1.7869

          k = 0.5000 0.2887 0.1907 (  4260 PWs)   bands (ev):

  -121.5250-120.6540 -76.8900 -75.9557 -75.3408 -75.3407 -74.5724 -74.5723
    -9.1301  -6.8229  -4.2359  -4.0896  -3.6516  -3.0525  -2.9174  -1.7870

          k = 0.5000 0.2887 0.1831 (  4260 PWs)   bands (ev):

  -121.5250-120.6540 -76.8900 -75.9557 -75.3408 -75.3407 -74.5724 -74.5723
    -9.1302  -6.8229  -4.2360  -4.0896  -3.6511  -3.0525  -2.9172  -1.7869

          k = 0.5000 0.2887 0.1754 (  4264 PWs)   bands (ev):

  -121.5250-120.6540 -76.8900 -75.9557 -75.3408 -75.3407 -74.5724 -74.5723
    -9.1303  -6.8229  -4.2360  -4.0896  -3.6509  -3.0525  -2.9171  -1.7862

          k = 0.5000 0.2887 0.1678 (  4264 PWs)   bands (ev):

  -121.5250-120.6540 -76.8900 -75.9557 -75.3408 -75.3407 -74.5724 -74.5723
    -9.1305  -6.8230  -4.2359  -4.0897  -3.6506  -3.0524  -2.9169  -1.7869

          k = 0.5000 0.2887 0.1602 (  4266 PWs)   bands (ev):

  -121.5250-120.6540 -76.8900 -75.9557 -75.3408 -75.3407 -74.5724 -74.5723
    -9.1306  -6.8230  -4.2359  -4.0897  -3.6504  -3.0523  -2.9168  -1.7866

          k = 0.5000 0.2887 0.1526 (  4266 PWs)   bands (ev):

  -121.5250-120.6540 -76.8900 -75.9557 -75.3408 -75.3407 -74.5724 -74.5723
    -9.1308  -6.8230  -4.2359  -4.0898  -3.6501  -3.0522  -2.9167  -1.7865

          k = 0.5000 0.2887 0.1449 (  4270 PWs)   bands (ev):

  -121.5250-120.6540 -76.8900 -75.9558 -75.3408 -75.3407 -74.5724 -74.5723
    -9.1309  -6.8231  -4.2359  -4.0899  -3.6498  -3.0521  -2.9166  -1.7863

          k = 0.5000 0.2887 0.1373 (  4266 PWs)   bands (ev):

  -121.5250-120.6540 -76.8900 -75.9558 -75.3408 -75.3407 -74.5724 -74.5723
    -9.1310  -6.8231  -4.2358  -4.0898  -3.6495  -3.0520  -2.9163  -1.7793

          k = 0.5000 0.2887 0.1297 (  4270 PWs)   bands (ev):

  -121.5250-120.6540 -76.8900 -75.9558 -75.3408 -75.3407 -74.5724 -74.5723
    -9.1312  -6.8231  -4.2358  -4.0898  -3.6492  -3.0519  -2.9161  -1.7860

          k = 0.5000 0.2887 0.1220 (  4262 PWs)   bands (ev):

  -121.5250-120.6540 -76.8900 -75.9557 -75.3408 -75.3407 -74.5724 -74.5723
    -9.1313  -6.8231  -4.2356  -4.0898  -3.6488  -3.0517  -2.9158  -1.7854

          k = 0.5000 0.2887 0.1144 (  4262 PWs)   bands (ev):

  -121.5250-120.6540 -76.8900 -75.9557 -75.3408 -75.3407 -74.5724 -74.5723
    -9.1314  -6.8231  -4.2356  -4.0898  -3.6485  -3.0516  -2.9157  -1.7854

          k = 0.5000 0.2887 0.1068 (  4254 PWs)   bands (ev):

  -121.5250-120.6540 -76.8900 -75.9557 -75.3408 -75.3407 -74.5724 -74.5723
    -9.1316  -6.8231  -4.2355  -4.0898  -3.6481  -3.0514  -2.9155  -1.7813

          k = 0.5000 0.2887 0.0992 (  4254 PWs)   bands (ev):

  -121.5250-120.6540 -76.8900 -75.9557 -75.3408 -75.3407 -74.5724 -74.5723
    -9.1317  -6.8231  -4.2355  -4.0899  -3.6477  -3.0513  -2.9154  -1.7841

          k = 0.5000 0.2887 0.0915 (  4260 PWs)   bands (ev):

  -121.5250-120.6540 -76.8900 -75.9557 -75.3408 -75.3407 -74.5724 -74.5723
    -9.1318  -6.8231  -4.2355  -4.0900  -3.6475  -3.0513  -2.9154  -1.7835

          k = 0.5000 0.2887 0.0839 (  4260 PWs)   bands (ev):

  -121.5250-120.6540 -76.8900 -75.9557 -75.3408 -75.3407 -74.5724 -74.5723
    -9.1319  -6.8231  -4.2355  -4.0898  -3.6472  -3.0512  -2.9150  -1.7816

          k = 0.5000 0.2887 0.0763 (  4260 PWs)   bands (ev):

  -121.5250-120.6540 -76.8900 -75.9557 -75.3408 -75.3407 -74.5724 -74.5723
    -9.1320  -6.8231  -4.2354  -4.0899  -3.6470  -3.0511  -2.9149  -1.7847

          k = 0.5000 0.2887 0.0687 (  4260 PWs)   bands (ev):

  -121.5250-120.6540 -76.8900 -75.9557 -75.3408 -75.3407 -74.5724 -74.5723
    -9.1321  -6.8232  -4.2354  -4.0899  -3.6467  -3.0510  -2.9148  -1.7846

          k = 0.5000 0.2887 0.0610 (  4258 PWs)   bands (ev):

  -121.5250-120.6540 -76.8900 -75.9557 -75.3408 -75.3407 -74.5724 -74.5723
    -9.1321  -6.8231  -4.2354  -4.0899  -3.6464  -3.0509  -2.9147  -1.7847

          k = 0.5000 0.2887 0.0534 (  4268 PWs)   bands (ev):

  -121.5250-120.6540 -76.8900 -75.9558 -75.3408 -75.3407 -74.5724 -74.5723
    -9.1322  -6.8232  -4.2356  -4.0900  -3.6465  -3.0511  -2.9147  -1.7847

          k = 0.5000 0.2887 0.0458 (  4276 PWs)   bands (ev):

  -121.5250-120.6540 -76.8900 -75.9558 -75.3408 -75.3407 -74.5724 -74.5723
    -9.1323  -6.8233  -4.2357  -4.0900  -3.6465  -3.0512  -2.9147  -1.7844

          k = 0.5000 0.2887 0.0381 (  4276 PWs)   bands (ev):

  -121.5250-120.6540 -76.8900 -75.9558 -75.3408 -75.3407 -74.5724 -74.5723
    -9.1324  -6.8233  -4.2357  -4.0900  -3.6464  -3.0512  -2.9146  -1.7828

          k = 0.5000 0.2887 0.0305 (  4276 PWs)   bands (ev):

  -121.5250-120.6540 -76.8900 -75.9558 -75.3408 -75.3407 -74.5724 -74.5723
    -9.1324  -6.8233  -4.2357  -4.0901  -3.6463  -3.0512  -2.9145  -1.7836

          k = 0.5000 0.2887 0.0229 (  4266 PWs)   bands (ev):

  -121.5250-120.6540 -76.8900 -75.9557 -75.3408 -75.3407 -74.5724 -74.5723
    -9.1325  -6.8233  -4.2356  -4.0899  -3.6461  -3.0510  -2.9142  -1.7841

          k = 0.5000 0.2887 0.0153 (  4266 PWs)   bands (ev):

  -121.5250-120.6540 -76.8900 -75.9558 -75.3408 -75.3407 -74.5724 -74.5723
    -9.1325  -6.8233  -4.2356  -4.0900  -3.6460  -3.0510  -2.9144  -1.7562

          k = 0.5000 0.2887 0.0076 (  4270 PWs)   bands (ev):

  -121.5250-120.6540 -76.8900 -75.9558 -75.3408 -75.3407 -74.5724 -74.5723
    -9.1325  -6.8233  -4.2356  -4.0901  -3.6462  -3.0510  -2.9144  -1.7837

          k = 0.5000 0.2887 0.0000 (  4272 PWs)   bands (ev):

  -121.5250-120.6540 -76.8900 -75.9558 -75.3408 -75.3407 -74.5724 -74.5723
    -9.1325  -6.8233  -4.2356  -4.0901  -3.6462  -3.0510  -2.9143  -1.7840

          k = 0.4875 0.2815 0.0000 (  4274 PWs)   bands (ev):

  -121.5250-120.6540 -76.8900 -75.9558 -75.3408 -75.3407 -74.5724 -74.5723
    -9.1332  -6.8234  -4.2355  -4.0900  -3.6471  -3.0509  -2.9144  -1.7841

          k = 0.4750 0.2742 0.0000 (  4276 PWs)   bands (ev):

  -121.5250-120.6540 -76.8900 -75.9558 -75.3408 -75.3407 -74.5724 -74.5723
    -9.1350  -6.8237  -4.2352  -4.0899  -3.6497  -3.0504  -2.9145  -1.7827

          k = 0.4625 0.2670 0.0000 (  4274 PWs)   bands (ev):

  -121.5250-120.6540 -76.8900 -75.9558 -75.3408 -75.3407 -74.5724 -74.5723
    -9.1381  -6.8242  -4.2349  -4.0898  -3.6539  -3.0498  -2.9145  -1.7819

          k = 0.4500 0.2598 0.0000 (  4272 PWs)   bands (ev):

  -121.5250-120.6540 -76.8900 -75.9558 -75.3408 -75.3407 -74.5723 -74.5723
    -9.1424  -6.8248  -4.2344  -4.0895  -3.6597  -3.0490  -2.9146  -1.7766

          k = 0.4375 0.2526 0.0000 (  4266 PWs)   bands (ev):

  -121.5250-120.6540 -76.8900 -75.9558 -75.3408 -75.3407 -74.5723 -74.5723
    -9.1478  -6.8256  -4.2336  -4.0893  -3.6668  -3.0476  -2.9148  -1.7810

          k = 0.4250 0.2454 0.0000 (  4262 PWs)   bands (ev):

  -121.5250-120.6540 -76.8900 -75.9558 -75.3408 -75.3407 -74.5723 -74.5723
    -9.1544  -6.8266  -4.2328  -4.0889  -3.6756  -3.0461  -2.9150  -1.7805

          k = 0.4125 0.2382 0.0000 (  4258 PWs)   bands (ev):

  -121.5250-120.6540 -76.8900 -75.9557 -75.3408 -75.3407 -74.5723 -74.5723
    -9.1621  -6.8278  -4.2318  -4.0884  -3.6856  -3.0444  -2.9150  -1.7790

          k = 0.4000 0.2309 0.0000 (  4258 PWs)   bands (ev):

  -121.5250-120.6540 -76.8900 -75.9557 -75.3408 -75.3407 -74.5723 -74.5723
    -9.1708  -6.8291  -4.2308  -4.0880  -3.6968  -3.0424  -2.9153  -1.7781

          k = 0.3875 0.2237 0.0000 (  4258 PWs)   bands (ev):

  -121.5250-120.6540 -76.8900 -75.9557 -75.3408 -75.3407 -74.5723 -74.5723
    -9.1804  -6.8306  -4.2297  -4.0875  -3.7090  -3.0401  -2.9156  -1.7785

          k = 0.3750 0.2165 0.0000 (  4258 PWs)   bands (ev):

  -121.5250-120.6540 -76.8900 -75.9557 -75.3408 -75.3407 -74.5723 -74.5723
    -9.1910  -6.8322  -4.2283  -4.0868  -3.7222  -3.0375  -2.9157  -1.7731

          k = 0.3625 0.2093 0.0000 (  4258 PWs)   bands (ev):

  -121.5250-120.6540 -76.8900 -75.9557 -75.3408 -75.3407 -74.5723 -74.5723
    -9.2024  -6.8340  -4.2269  -4.0862  -3.7362  -3.0347  -2.9160  -1.7742

          k = 0.3500 0.2021 0.0000 (  4262 PWs)   bands (ev):

  -121.5250-120.6540 -76.8900 -75.9557 -75.3408 -75.3407 -74.5723 -74.5723
    -9.2145  -6.8359  -4.2253  -4.0856  -3.7508  -3.0316  -2.9163  -1.6552

          k = 0.3375 0.1949 0.0000 (  4258 PWs)   bands (ev):

  -121.5250-120.6540 -76.8900 -75.9557 -75.3408 -75.3407 -74.5723 -74.5723
    -9.2273  -6.8378  -4.2236  -4.0849  -3.7656  -3.0283  -2.9167  -1.7725

          k = 0.3250 0.1876 0.0000 (  4260 PWs)   bands (ev):

  -121.5250-120.6540 -76.8900 -75.9557 -75.3408 -75.3407 -74.5723 -74.5723
    -9.2407  -6.8399  -4.2217  -4.0842  -3.7811  -3.0246  -2.9170  -1.7710

          k = 0.3125 0.1804 0.0000 (  4266 PWs)   bands (ev):

  -121.5250-120.6540 -76.8900 -75.9557 -75.3408 -75.3407 -74.5723 -74.5723
    -9.2546  -6.8421  -4.2198  -4.0834  -3.7969  -3.0207  -2.9174  -1.7685

          k = 0.3000 0.1732 0.0000 (  4270 PWs)   bands (ev):

  -121.5250-120.6540 -76.8900 -75.9557 -75.3408 -75.3407 -74.5723 -74.5723
    -9.2688  -6.8444  -4.2177  -4.0826  -3.8127  -3.0165  -2.9177  -1.7673

          k = 0.2875 0.1660 0.0000 (  4272 PWs)   bands (ev):

  -121.5250-120.6540 -76.8900 -75.9557 -75.3408 -75.3407 -74.5723 -74.5723
    -9.2834  -6.8467  -4.2155  -4.0818  -3.8286  -3.0122  -2.9181  -1.7646

          k = 0.2750 0.1588 0.0000 (  4276 PWs)   bands (ev):

  -121.5250-120.6540 -76.8900 -75.9558 -75.3408 -75.3407 -74.5723 -74.5723
    -9.2982  -6.8490  -4.2132  -4.0811  -3.8443  -3.0076  -2.9186  -1.7633

          k = 0.2625 0.1516 0.0000 (  4270 PWs)   bands (ev):

  -121.5250-120.6540 -76.8900 -75.9558 -75.3408 -75.3407 -74.5723 -74.5722
    -9.3131  -6.8514  -4.2107  -4.0803  -3.8598  -3.0030  -2.9190  -1.7613

          k = 0.2500 0.1443 0.0000 (  4278 PWs)   bands (ev):

  -121.5250-120.6540 -76.8900 -75.9557 -75.3408 -75.3407 -74.5723 -74.5722
    -9.3280  -6.8538  -4.2083  -4.0796  -3.8753  -2.9983  -2.9195  -1.7591

          k = 0.2375 0.1371 0.0000 (  4275 PWs)   bands (ev):

  -121.5250-120.6540 -76.8900 -75.9558 -75.3407 -75.3407 -74.5723 -74.5722
    -9.3428  -6.8561  -4.2056  -4.0788  -3.8903  -2.9933  -2.9199  -1.7481

          k = 0.2250 0.1299 0.0000 (  4267 PWs)   bands (ev):

  -121.5250-120.6540 -76.8900 -75.9558 -75.3407 -75.3407 -74.5723 -74.5722
    -9.3575  -6.8585  -4.2028  -4.0779  -3.9050  -2.9881  -2.9202  -1.7464

          k = 0.2125 0.1227 0.0000 (  4271 PWs)   bands (ev):

  -121.5250-120.6540 -76.8900 -75.9558 -75.3407 -75.3407 -74.5723 -74.5722
    -9.3719  -6.8609  -4.1998  -4.0771  -3.9193  -2.9830  -2.9206  -1.7534

          k = 0.2000 0.1155 0.0000 (  4265 PWs)   bands (ev):

  -121.5250-120.6540 -76.8900 -75.9557 -75.3407 -75.3407 -74.5723 -74.5722
    -9.3860  -6.8631  -4.1967  -4.0762  -3.9332  -2.9777  -2.9208  -1.7413

          k = 0.1875 0.1083 0.0000 (  4259 PWs)   bands (ev):

  -121.5250-120.6540 -76.8900 -75.9557 -75.3407 -75.3407 -74.5723 -74.5722
    -9.3997  -6.8654  -4.1935  -4.0753  -3.9466  -2.9723  -2.9211  -1.7466

          k = 0.1750 0.1010 0.0000 (  4253 PWs)   bands (ev):

  -121.5250-120.6540 -76.8900 -75.9557 -75.3407 -75.3407 -74.5723 -74.5722
    -9.4129  -6.8676  -4.1901  -4.0745  -3.9596  -2.9670  -2.9213  -1.7337

          k = 0.1625 0.0938 0.0000 (  4253 PWs)   bands (ev):

  -121.5250-120.6540 -76.8900 -75.9557 -75.3407 -75.3407 -74.5723 -74.5722
    -9.4255  -6.8696  -4.1868  -4.0739  -3.9720  -2.9619  -2.9217  -1.7092

          k = 0.1500 0.0866 0.0000 (  4253 PWs)   bands (ev):

  -121.5250-120.6540 -76.8900 -75.9557 -75.3407 -75.3407 -74.5723 -74.5722
    -9.4375  -6.8716  -4.1834  -4.0732  -3.9841  -2.9570  -2.9220  -1.7230

          k = 0.1375 0.0794 0.0000 (  4241 PWs)   bands (ev):

  -121.5250-120.6540 -76.8900 -75.9557 -75.3407 -75.3407 -74.5722 -74.5722
    -9.4488  -6.8735  -4.1798  -4.0725  -3.9954  -2.9521  -2.9222  -1.7373

          k = 0.1250 0.0722 0.0000 (  4249 PWs)   bands (ev):

  -121.5250-120.6540 -76.8900 -75.9557 -75.3407 -75.3407 -74.5722 -74.5722
    -9.4593  -6.8753  -4.1763  -4.0719  -4.0062  -2.9478  -2.9225  -1.7368

          k = 0.1125 0.0650 0.0000 (  4249 PWs)   bands (ev):

  -121.5250-120.6540 -76.8900 -75.9557 -75.3407 -75.3407 -74.5722 -74.5722
    -9.4690  -6.8769  -4.1726  -4.0714  -4.0165  -2.9435  -2.9228  -1.7285

          k = 0.1000 0.0577 0.0000 (  4257 PWs)   bands (ev):

  -121.5250-120.6540 -76.8900 -75.9557 -75.3407 -75.3407 -74.5722 -74.5722
    -9.4778  -6.8784  -4.1691  -4.0709  -4.0261  -2.9398  -2.9231  -1.7376

          k = 0.0875 0.0505 0.0000 (  4249 PWs)   bands (ev):

  -121.5250-120.6540 -76.8900 -75.9557 -75.3407 -75.3407 -74.5722 -74.5722
    -9.4857  -6.8797  -4.1654  -4.0704  -4.0349  -2.9363  -2.9233  -1.7374

          k = 0.0750 0.0433 0.0000 (  4255 PWs)   bands (ev):

  -121.5250-120.6540 -76.8900 -75.9557 -75.3407 -75.3407 -74.5722 -74.5722
    -9.4926  -6.8808  -4.1618  -4.0701  -4.0431  -2.9333  -2.9235  -1.7350

          k = 0.0625 0.0361 0.0000 (  4253 PWs)   bands (ev):

  -121.5250-120.6540 -76.8900 -75.9557 -75.3407 -75.3407 -74.5722 -74.5722
    -9.4985  -6.8818  -4.1584  -4.0697  -4.0502  -2.9304  -2.9236  -1.7317

          k = 0.0500 0.0289 0.0000 (  4251 PWs)   bands (ev):

  -121.5250-120.6540 -76.8900 -75.9557 -75.3407 -75.3407 -74.5722 -74.5722
    -9.5034  -6.8826  -4.1552  -4.0694  -4.0565  -2.9281  -2.9238  -1.7339

          k = 0.0375 0.0217 0.0000 (  4259 PWs)   bands (ev):

  -121.5250-120.6540 -76.8900 -75.9557 -75.3407 -75.3407 -74.5722 -74.5722
    -9.5072  -6.8833  -4.1525  -4.0692  -4.0617  -2.9264  -2.9239  -1.7341

          k = 0.0250 0.0144 0.0000 (  4255 PWs)   bands (ev):

  -121.5250-120.6540 -76.8900 -75.9557 -75.3407 -75.3407 -74.5722 -74.5722
    -9.5100  -6.8837  -4.1502  -4.0690  -4.0657  -2.9251  -2.9239  -1.7339

          k = 0.0125 0.0072 0.0000 (  4255 PWs)   bands (ev):

  -121.5250-120.6540 -76.8900 -75.9557 -75.3407 -75.3407 -74.5722 -74.5722
    -9.5116  -6.8840  -4.1488  -4.0689  -4.0681  -2.9243  -2.9240  -1.7339

          k = 0.0000 0.0000 0.0000 (  4247 PWs)   bands (ev):

  -121.5250-120.6540 -76.8900 -75.9557 -75.3407 -75.3407 -74.5722 -74.5722
    -9.5122  -6.8840  -4.1482  -4.0689  -4.0689  -2.9239  -2.9239  -1.7340

     Writing all to output data dir ./SCRATCH/zns_w.save/

     init_run     :      0.14s CPU      0.17s WALL (       1 calls)
     electrons    :    497.48s CPU    505.88s WALL (       1 calls)

     Called by init_run:
     wfcinit      :      0.00s CPU      0.00s WALL (       1 calls)
     wfcinit:wfcr :      6.48s CPU      6.82s WALL (     241 calls)
     potinit      :      0.03s CPU      0.04s WALL (       1 calls)
     hinit0       :      0.03s CPU      0.04s WALL (       1 calls)

     Called by electrons:
     c_bands      :    497.47s CPU    505.88s WALL (       1 calls)
     v_of_rho     :      0.03s CPU      0.04s WALL (       1 calls)
     v_h          :      0.00s CPU      0.00s WALL (       1 calls)
     v_xc         :      0.03s CPU      0.03s WALL (       1 calls)

     Called by c_bands:
     init_us_2    :      0.34s CPU      0.24s WALL (     241 calls)
     init_us_2:cp :      0.34s CPU      0.24s WALL (     241 calls)
     cegterg      :    489.02s CPU    496.97s WALL (    1446 calls)

     Called by sum_band:

     Called by *egterg:
     cdiaghg      :      5.97s CPU      6.16s WALL (   29159 calls)
     cegterg:over :     53.45s CPU     53.04s WALL (   28918 calls)
     cegterg:upda :     26.56s CPU     27.56s WALL (   28918 calls)
     cegterg:last :     46.58s CPU     46.29s WALL (   14742 calls)
     h_psi        :    353.50s CPU    359.30s WALL (   30605 calls)
     g_psi        :      2.28s CPU      2.51s WALL (   28918 calls)

     Called by h_psi:
     h_psi:calbec :     56.44s CPU     57.46s WALL (   30605 calls)
     vloc_psi     :    255.84s CPU    257.90s WALL (   30605 calls)
     add_vuspsi   :     39.73s CPU     39.46s WALL (   30605 calls)

     General routines
     calbec       :     56.36s CPU     57.33s WALL (   30605 calls)
     fft          :      0.02s CPU      0.01s WALL (      10 calls)
     fftw         :    229.81s CPU    230.91s WALL (  475324 calls)
     davcio       :      0.00s CPU      0.12s WALL (     482 calls)


     PWSCF        :   8m17.72s CPU   8m26.42s WALL


   This run was terminated on:  19:35:15  11Jun2024            

=------------------------------------------------------------------------------=
   JOB DONE.
=------------------------------------------------------------------------------=
