
     Program PWSCF v.7.2 starts on  9Jun2024 at 12:10:49 

     This program is part of the open-source Quantum ESPRESSO suite
     for quantum simulation of materials; please cite
         "P. Giannozzi et al., J. Phys.:Condens. Matter 21 395502 (2009);
         "P. Giannozzi et al., J. Phys.:Condens. Matter 29 465901 (2017);
         "P. Giannozzi et al., J. Chem. Phys. 152 154105 (2020);
          URL http://www.quantum-espresso.org", 
     in publications or presentations arising from this work. More details at
     http://www.quantum-espresso.org/quote

     Serial version
     8672 MiB available memory on the printing compute node when the environment starts

     Waiting for input...
     Reading input from standard input

     Current dimensions of program PWSCF are:
     Max number of different atomic species (ntypx) = 10
     Max number of k-points (npk) =  40000
     Max angular momentum in pseudopotentials (lmaxx) =  4


     G-vector sticks info
     --------------------
     sticks:   dense  smooth     PW     G-vecs:    dense   smooth      PW
     Sum         721     721    211                25517    25517    4079

     Using Slab Decomposition



     bravais-lattice index     =            4
     lattice parameter (alat)  =       7.2188  a.u.
     unit-cell volume          =     533.8610 (a.u.)^3
     number of atoms/cell      =            4
     number of atomic types    =            2
     number of electrons       =        16.00
     number of Kohn-Sham states=            8
     kinetic-energy cutoff     =      50.0000  Ry
     charge density cutoff     =     200.0000  Ry
     scf convergence threshold =      1.0E-08
     mixing beta               =       0.7000
     number of iterations used =            8  plain     mixing
     Exchange-correlation= SLA-PZ-NOGX-NOGC
                           (   1   1   0   0   0   0   0)

     celldm(1)=   7.218753  celldm(2)=   0.000000  celldm(3)=   1.638743
     celldm(4)=   0.000000  celldm(5)=   0.000000  celldm(6)=   0.000000

     crystal axes: (cart. coord. in units of alat)
               a(1) = (   1.000000   0.000000   0.000000 )  
               a(2) = (  -0.500000   0.866025   0.000000 )  
               a(3) = (   0.000000   0.000000   1.638743 )  

     reciprocal axes: (cart. coord. in units 2 pi/alat)
               b(1) = (  1.000000  0.577350 -0.000000 )  
               b(2) = (  0.000000  1.154701  0.000000 )  
               b(3) = (  0.000000 -0.000000  0.610224 )  


     PseudoPot. # 1 for Zn read from file:
     /home/paolo/project_labqsm/pseudopotentials/Zn.pz-hgh.UPF
     MD5 check sum: c1979979258da2eeca1fc2dcb474678d
     Pseudo is Norm-conserving, Zval =  2.0
     Generated in analytical, separable form
     Using radial grid of 1201 points,  6 beta functions with: 
                l(1) =   0
                l(2) =   0
                l(3) =   0
                l(4) =   1
                l(5) =   1
                l(6) =   2

     PseudoPot. # 2 for S  read from file:
     /home/paolo/project_labqsm/pseudopotentials/S.pz-hgh.UPF
     MD5 check sum: a0679cb0a74c01c481c24d5fd31ffa9b
     Pseudo is Norm-conserving, Zval =  6.0
     Generated in analytical, separable form
     Using radial grid of 1151 points,  3 beta functions with: 
                l(1) =   0
                l(2) =   0
                l(3) =   1

     atomic species   valence    mass     pseudopotential
        Zn             2.00    65.38000     Zn( 1.00)
        S              6.00    32.06000     S ( 1.00)

      6 Sym. Ops. (no inversion) found



   Cartesian axes

     site n.     atom                  positions (alat units)
         1           Zn  tau(   1) = (   0.0000000   0.0000000   0.0000000  )
         2           S   tau(   2) = (   0.0000000   0.0000000   0.3723729  )
         3           Zn  tau(   3) = (   0.0000000   0.5773503   0.5000000  )
         4           S   tau(   4) = (   0.0000000   0.5773503   0.8723729  )

     number of k points=    34
                       cart. coord. in units 2pi/alat
        k(    1) = (   0.0000000   0.0000000   0.0000000), wk =   0.0092593
        k(    2) = (   0.0000000   0.0000000   0.1017039), wk =   0.0185185
        k(    3) = (   0.0000000   0.0000000   0.2034079), wk =   0.0185185
        k(    4) = (   0.0000000   0.0000000  -0.3051118), wk =   0.0092593
        k(    5) = (   0.0000000   0.1924501   0.0000000), wk =   0.0555556
        k(    6) = (   0.0000000   0.1924501   0.1017039), wk =   0.0555556
        k(    7) = (   0.0000000   0.1924501   0.2034079), wk =   0.0555556
        k(    8) = (   0.0000000   0.1924501  -0.3051118), wk =   0.0555556
        k(    9) = (   0.0000000   0.3849002   0.0000000), wk =   0.0555556
        k(   10) = (   0.0000000   0.3849002   0.1017039), wk =   0.0555556
        k(   11) = (   0.0000000   0.3849002   0.2034079), wk =   0.0555556
        k(   12) = (   0.0000000   0.3849002  -0.3051118), wk =   0.0555556
        k(   13) = (   0.0000000  -0.5773503   0.0000000), wk =   0.0277778
        k(   14) = (   0.0000000  -0.5773503   0.1017039), wk =   0.0555556
        k(   15) = (   0.0000000  -0.5773503   0.2034079), wk =   0.0555556
        k(   16) = (   0.0000000  -0.5773503  -0.3051118), wk =   0.0277778
        k(   17) = (   0.1666667   0.2886751   0.0000000), wk =   0.0555556
        k(   18) = (   0.1666667   0.2886751   0.1017039), wk =   0.1111111
        k(   19) = (   0.1666667   0.2886751   0.2034079), wk =   0.1111111
        k(   20) = (   0.1666667   0.2886751  -0.3051118), wk =   0.0555556
        k(   21) = (   0.1666667   0.4811252   0.0000000), wk =   0.1111111
        k(   22) = (   0.1666667   0.4811252   0.1017039), wk =   0.1111111
        k(   23) = (   0.1666667   0.4811252   0.2034079), wk =   0.1111111
        k(   24) = (   0.1666667   0.4811252  -0.3051118), wk =   0.1111111
        k(   25) = (   0.3333333   0.5773503   0.0000000), wk =   0.0185185
        k(   26) = (   0.3333333   0.5773503   0.1017039), wk =   0.0370370
        k(   27) = (   0.3333333   0.5773503   0.2034079), wk =   0.0370370
        k(   28) = (   0.3333333   0.5773503  -0.3051118), wk =   0.0185185
        k(   29) = (   0.0000000  -0.1924501   0.1017039), wk =   0.0555556
        k(   30) = (   0.0000000  -0.1924501   0.2034079), wk =   0.0555556
        k(   31) = (   0.0000000  -0.3849002   0.1017039), wk =   0.0555556
        k(   32) = (   0.0000000  -0.3849002   0.2034079), wk =   0.0555556
        k(   33) = (  -0.1666667  -0.4811252   0.1017039), wk =   0.1111111
        k(   34) = (  -0.1666667  -0.4811252   0.2034079), wk =   0.1111111

     Dense  grid:    25517 G-vectors     FFT dimensions: (  36,  36,  54)

     Estimated max dynamical RAM per process >      37.46 MB

     Initial potential from superposition of free atoms

     starting charge      12.0000, renormalised to      16.0000
     Starting wfcs are   36 randomized atomic wfcs

     total cpu time spent up to now is        2.3 secs

     Self-consistent Calculation

     iteration #  1     ecut=    50.00 Ry     beta= 0.70
     Davidson diagonalization with overlap
     ethr =  1.00E-02,  avg # of iterations =  2.0

     total cpu time spent up to now is        3.5 secs

     total energy              =     -42.65199301 Ry
     estimated scf accuracy    <       2.93321705 Ry

     iteration #  2     ecut=    50.00 Ry     beta= 0.70
     Davidson diagonalization with overlap
     ethr =  1.00E-02,  avg # of iterations =  4.5

     total cpu time spent up to now is        5.2 secs

     total energy              =     -43.96902707 Ry
     estimated scf accuracy    <       4.65570997 Ry

     iteration #  3     ecut=    50.00 Ry     beta= 0.70
     Davidson diagonalization with overlap
     ethr =  1.00E-02,  avg # of iterations =  2.1

     total cpu time spent up to now is        6.5 secs

     total energy              =     -44.24995458 Ry
     estimated scf accuracy    <       0.53966895 Ry

     iteration #  4     ecut=    50.00 Ry     beta= 0.70
     Davidson diagonalization with overlap
     ethr =  3.37E-03,  avg # of iterations =  2.9

     total cpu time spent up to now is        7.7 secs

     total energy              =     -44.34633991 Ry
     estimated scf accuracy    <       0.02278345 Ry

     iteration #  5     ecut=    50.00 Ry     beta= 0.70
     Davidson diagonalization with overlap
     ethr =  1.42E-04,  avg # of iterations =  4.4

     total cpu time spent up to now is        9.1 secs

     total energy              =     -44.35744841 Ry
     estimated scf accuracy    <       0.00075036 Ry

     iteration #  6     ecut=    50.00 Ry     beta= 0.70
     Davidson diagonalization with overlap
     ethr =  4.69E-06,  avg # of iterations =  5.0

     total cpu time spent up to now is       10.7 secs

     total energy              =     -44.35736038 Ry
     estimated scf accuracy    <       0.00189759 Ry

     iteration #  7     ecut=    50.00 Ry     beta= 0.70
     Davidson diagonalization with overlap
     ethr =  4.69E-06,  avg # of iterations =  3.3

     total cpu time spent up to now is       12.1 secs

     total energy              =     -44.35763674 Ry
     estimated scf accuracy    <       0.00003998 Ry

     iteration #  8     ecut=    50.00 Ry     beta= 0.70
     Davidson diagonalization with overlap
     ethr =  2.50E-07,  avg # of iterations =  6.1

     total cpu time spent up to now is       13.9 secs

     total energy              =     -44.35762631 Ry
     estimated scf accuracy    <       0.00037882 Ry

     iteration #  9     ecut=    50.00 Ry     beta= 0.70
     Davidson diagonalization with overlap
     ethr =  2.50E-07,  avg # of iterations =  4.6

     total cpu time spent up to now is       15.4 secs

     total energy              =     -44.35765937 Ry
     estimated scf accuracy    <       0.00001845 Ry

     iteration # 10     ecut=    50.00 Ry     beta= 0.70
     Davidson diagonalization with overlap
     ethr =  1.15E-07,  avg # of iterations =  3.0

     total cpu time spent up to now is       16.7 secs

     total energy              =     -44.35766441 Ry
     estimated scf accuracy    <       0.00000041 Ry

     iteration # 11     ecut=    50.00 Ry     beta= 0.70
     Davidson diagonalization with overlap
     ethr =  2.54E-09,  avg # of iterations =  4.2

     total cpu time spent up to now is       18.1 secs

     total energy              =     -44.35766456 Ry
     estimated scf accuracy    <       0.00000022 Ry

     iteration # 12     ecut=    50.00 Ry     beta= 0.70
     Davidson diagonalization with overlap
     ethr =  1.35E-09,  avg # of iterations =  1.8

     total cpu time spent up to now is       19.1 secs

     total energy              =     -44.35766454 Ry
     estimated scf accuracy    <       0.00000010 Ry

     iteration # 13     ecut=    50.00 Ry     beta= 0.70
     Davidson diagonalization with overlap
     ethr =  6.06E-10,  avg # of iterations =  2.6

     total cpu time spent up to now is       20.2 secs

     End of self-consistent calculation

          k = 0.0000 0.0000 0.0000 (  3189 PWs)   bands (ev):

   -12.9346  -8.9333  -2.3394  -0.7675  -0.7675   1.7356   3.0194   3.0194

          k = 0.0000 0.0000 0.1017 (  3171 PWs)   bands (ev):

   -12.9319  -8.9545  -2.1932  -0.7640  -0.7640   1.3020   3.0115   3.0115

          k = 0.0000 0.0000 0.2034 (  3200 PWs)   bands (ev):

   -12.9265  -8.9964  -1.8376  -0.7574  -0.7574   0.6138   2.9948   2.9948

          k = 0.0000 0.0000-0.3051 (  3146 PWs)   bands (ev):

   -12.9237  -9.0169  -1.5985  -0.7537  -0.7537   0.2570   2.9869   2.9869

          k = 0.0000 0.1925 0.0000 (  3180 PWs)   bands (ev):

   -12.7520  -8.9160  -2.2652  -1.8064  -1.0832   1.4486   2.7138   3.1010

          k = 0.0000 0.1925 0.1017 (  3183 PWs)   bands (ev):

   -12.7495  -8.9323  -2.2098  -1.7847  -1.0781   1.4671   2.5226   3.0771

          k = 0.0000 0.1925 0.2034 (  3169 PWs)   bands (ev):

   -12.7445  -8.9649  -2.1371  -1.6595  -1.0691   1.2145   2.4755   3.0423

          k = 0.0000 0.1925-0.3051 (  3164 PWs)   bands (ev):

   -12.7420  -8.9812  -2.1209  -1.5454  -1.0652   0.9767   2.5537   3.0310

          k = 0.0000 0.3849 0.0000 (  3192 PWs)   bands (ev):

   -12.3082  -8.9817  -3.2274  -2.0190  -1.6039   0.8969   2.4818   3.1216

          k = 0.0000 0.3849 0.1017 (  3190 PWs)   bands (ev):

   -12.3066  -8.9859  -3.2750  -2.0113  -1.5976   1.1958   2.3512   3.0825

          k = 0.0000 0.3849 0.2034 (  3193 PWs)   bands (ev):

   -12.3034  -8.9955  -3.3558  -1.9586  -1.5860   1.5122   2.2829   3.0161

          k = 0.0000 0.3849-0.3051 (  3206 PWs)   bands (ev):

   -12.3017  -9.0010  -3.3892  -1.9160  -1.5807   1.4094   2.4427   2.9884

          k = 0.0000-0.5774 0.0000 (  3174 PWs)   bands (ev):

   -12.0226  -9.1039  -3.6722  -2.0763  -1.8274   1.2173   1.7506   3.0920

          k = 0.0000-0.5774 0.1017 (  3182 PWs)   bands (ev):

   -12.0219  -9.1019  -3.7125  -2.1014  -1.8212   1.2695   1.9560   3.0509

          k = 0.0000-0.5774 0.2034 (  3184 PWs)   bands (ev):

   -12.0205  -9.0979  -3.7877  -2.1571  -1.8087   1.5158   2.2183   2.9714

          k = 0.0000-0.5774-0.3051 (  3220 PWs)   bands (ev):

   -12.0198  -9.0959  -3.8232  -2.1870  -1.8027   1.7462   2.2135   2.9326

          k = 0.1667 0.2887 0.0000 (  3190 PWs)   bands (ev):

   -12.4332  -8.9428  -2.7868  -2.1130  -1.7199   1.1066   2.7663   2.8761

          k = 0.1667 0.2887 0.1017 (  3192 PWs)   bands (ev):

   -12.4313  -8.9510  -2.8447  -2.0681  -1.6783   1.1566   2.7535   2.8636

          k = 0.1667 0.2887 0.2034 (  3181 PWs)   bands (ev):

   -12.4274  -8.9673  -2.9316  -2.0131  -1.5992   1.3324   2.6681   2.7931

          k = 0.1667 0.2887-0.3051 (  3184 PWs)   bands (ev):

   -12.4254  -8.9755  -2.9661  -1.9952  -1.5645   1.4824   2.5737   2.7250

          k = 0.1667 0.4811 0.0000 (  3199 PWs)   bands (ev):

   -12.0312  -9.0750  -3.4255  -2.4110  -2.0096   1.2022   2.2198   2.6748

          k = 0.1667 0.4811 0.1017 (  3192 PWs)   bands (ev):

   -12.0305  -9.0736  -3.4646  -2.4256  -2.0189   1.4146   2.2261   2.6556

          k = 0.1667 0.4811 0.2034 (  3190 PWs)   bands (ev):

   -12.0289  -9.0712  -3.5374  -2.4373  -2.0454   1.7557   2.1989   2.7891

          k = 0.1667 0.4811-0.3051 (  3190 PWs)   bands (ev):

   -12.0280  -9.0703  -3.5710  -2.4366  -2.0619   1.8416   2.2081   2.9310

          k = 0.3333 0.5774 0.0000 (  3180 PWs)   bands (ev):

   -11.8762  -9.1288  -3.1928  -3.0972  -2.1057   1.4951   2.1160   2.3121

          k = 0.3333 0.5774 0.1017 (  3204 PWs)   bands (ev):

   -11.8759  -9.1251  -3.1827  -3.1475  -2.1437   1.6472   2.0136   2.4861

          k = 0.3333 0.5774 0.2034 (  3180 PWs)   bands (ev):

   -11.8754  -9.1176  -3.2428  -3.1620  -2.2150   1.8299   1.9722   2.8927

          k = 0.3333 0.5774-0.3051 (  3168 PWs)   bands (ev):

   -11.8751  -9.1138  -3.2882  -3.1514  -2.2490   1.7460   2.1488   3.1495

          k = 0.0000-0.1925 0.1017 (  3183 PWs)   bands (ev):

   -12.7495  -8.9327  -2.2354  -1.7238  -1.0795   1.2081   2.8255   3.0894

          k = 0.0000-0.1925 0.2034 (  3169 PWs)   bands (ev):

   -12.7445  -8.9652  -2.1644  -1.5888  -1.0704   0.9843   2.7157   3.0543

          k = 0.0000-0.3849 0.1017 (  3190 PWs)   bands (ev):

   -12.3065  -8.9871  -3.2735  -1.9505  -1.5986   0.7970   2.6812   3.0925

          k = 0.0000-0.3849 0.2034 (  3193 PWs)   bands (ev):

   -12.3032  -8.9968  -3.3530  -1.9021  -1.5870   1.0079   2.7086   3.0258

          k =-0.1667-0.4811 0.1017 (  3192 PWs)   bands (ev):

   -12.0304  -9.0741  -3.4626  -2.4146  -2.0189   1.2503   2.3220   2.7226

          k =-0.1667-0.4811 0.2034 (  3190 PWs)   bands (ev):

   -12.0288  -9.0717  -3.5351  -2.4272  -2.0465   1.5433   2.2961   2.8950

     highest occupied level (ev):     3.1495

!    total energy              =     -44.35766455 Ry
     estimated scf accuracy    <          8.0E-09 Ry

     The total energy is the sum of the following terms:
     one-electron contribution =     -14.76254965 Ry
     hartree contribution      =      13.20453410 Ry
     xc contribution           =     -11.34759263 Ry
     ewald contribution        =     -31.45205637 Ry

     convergence has been achieved in  13 iterations

     Writing all to output data dir ./SCRATCH/zns_w.save/

     init_run     :      2.19s CPU      2.25s WALL (       1 calls)
     electrons    :     17.62s CPU     17.90s WALL (       1 calls)

     Called by init_run:
     wfcinit      :      2.02s CPU      2.08s WALL (       1 calls)
     potinit      :      0.03s CPU      0.03s WALL (       1 calls)
     hinit0       :      0.12s CPU      0.12s WALL (       1 calls)

     Called by electrons:
     c_bands      :     15.62s CPU     15.85s WALL (      13 calls)
     sum_band     :      1.92s CPU      1.95s WALL (      13 calls)
     v_of_rho     :      0.08s CPU      0.05s WALL (      14 calls)
     mix_rho      :      0.02s CPU      0.05s WALL (      13 calls)

     Called by c_bands:
     init_us_2    :      0.66s CPU      0.60s WALL (     918 calls)
     init_us_2:cp :      0.64s CPU      0.60s WALL (     918 calls)
     cegterg      :     14.70s CPU     14.79s WALL (     442 calls)

     Called by *egterg:
     cdiaghg      :      0.05s CPU      0.11s WALL (    2021 calls)
     h_psi        :     14.25s CPU     14.16s WALL (    2055 calls)
     g_psi        :      0.05s CPU      0.07s WALL (    1579 calls)

     Called by h_psi:
     h_psi:calbec :      1.72s CPU      1.55s WALL (    2055 calls)
     vloc_psi     :     11.27s CPU     11.39s WALL (    2055 calls)
     add_vuspsi   :      1.22s CPU      1.11s WALL (    2055 calls)

     General routines
     calbec       :      1.70s CPU      1.54s WALL (    2055 calls)
     fft          :      0.03s CPU      0.03s WALL (      41 calls)
     ffts         :      0.02s CPU      0.01s WALL (      13 calls)
     fftw         :     11.39s CPU     11.62s WALL (   28234 calls)


     PWSCF        :     19.84s CPU     20.22s WALL


   This run was terminated on:  12:11: 9   9Jun2024            

=------------------------------------------------------------------------------=
   JOB DONE.
=------------------------------------------------------------------------------=
