
     Program PWSCF v.7.2 starts on 26May2024 at 11:14:53 

     This program is part of the open-source Quantum ESPRESSO suite
     for quantum simulation of materials; please cite
         "P. Giannozzi et al., J. Phys.:Condens. Matter 21 395502 (2009);
         "P. Giannozzi et al., J. Phys.:Condens. Matter 29 465901 (2017);
         "P. Giannozzi et al., J. Chem. Phys. 152 154105 (2020);
          URL http://www.quantum-espresso.org", 
     in publications or presentations arising from this work. More details at
     http://www.quantum-espresso.org/quote

     Serial version
     9873 MiB available memory on the printing compute node when the environment starts

     Waiting for input...
     Reading input from standard input

     Current dimensions of program PWSCF are:
     Max number of different atomic species (ntypx) = 10
     Max number of k-points (npk) =  40000
     Max angular momentum in pseudopotentials (lmaxx) =  4


     G-vector sticks info
     --------------------
     sticks:   dense  smooth     PW     G-vecs:    dense   smooth      PW
     Sum         859     859    253                16865    16865    2741

     Using Slab Decomposition



     bravais-lattice index     =            2
     lattice parameter (alat)  =      10.2423  a.u.
     unit-cell volume          =     268.6175 (a.u.)^3
     number of atoms/cell      =            2
     number of atomic types    =            2
     number of electrons       =         8.00
     number of Kohn-Sham states=            4
     kinetic-energy cutoff     =      60.0000  Ry
     charge density cutoff     =     240.0000  Ry
     scf convergence threshold =      1.0E-08
     mixing beta               =       0.7000
     number of iterations used =            8  plain     mixing
     Exchange-correlation= SLA-PZ-NOGX-NOGC
                           (   1   1   0   0   0   0   0)

     celldm(1)=  10.242315  celldm(2)=   0.000000  celldm(3)=   0.000000
     celldm(4)=   0.000000  celldm(5)=   0.000000  celldm(6)=   0.000000

     crystal axes: (cart. coord. in units of alat)
               a(1) = (  -0.500000   0.000000   0.500000 )  
               a(2) = (   0.000000   0.500000   0.500000 )  
               a(3) = (  -0.500000   0.500000   0.000000 )  

     reciprocal axes: (cart. coord. in units 2 pi/alat)
               b(1) = ( -1.000000 -1.000000  1.000000 )  
               b(2) = (  1.000000  1.000000  1.000000 )  
               b(3) = ( -1.000000  1.000000 -1.000000 )  


     PseudoPot. # 1 for Zn read from file:
     /home/paolo/project_labqsm/pseudopotentials/Zn.pz-hgh.UPF
     MD5 check sum: c1979979258da2eeca1fc2dcb474678d
     Pseudo is Norm-conserving, Zval =  2.0
     Generated in analytical, separable form
     Using radial grid of 1201 points,  6 beta functions with: 
                l(1) =   0
                l(2) =   0
                l(3) =   0
                l(4) =   1
                l(5) =   1
                l(6) =   2

     PseudoPot. # 2 for S  read from file:
     /home/paolo/project_labqsm/pseudopotentials/S.pz-hgh.UPF
     MD5 check sum: a0679cb0a74c01c481c24d5fd31ffa9b
     Pseudo is Norm-conserving, Zval =  6.0
     Generated in analytical, separable form
     Using radial grid of 1151 points,  3 beta functions with: 
                l(1) =   0
                l(2) =   0
                l(3) =   1

     atomic species   valence    mass     pseudopotential
        Zn             2.00    65.38000     Zn( 1.00)
        S              6.00    32.06000     S ( 1.00)

     24 Sym. Ops. (no inversion) found



   Cartesian axes

     site n.     atom                  positions (alat units)
         1           Zn  tau(   1) = (   0.0000000   0.0000000   0.0000000  )
         2           S   tau(   2) = (   0.2500000   0.2500000   0.2500000  )

     number of k points=    16
                       cart. coord. in units 2pi/alat
        k(    1) = (   0.0000000   0.0000000   0.0000000), wk =   0.0092593
        k(    2) = (  -0.1666667   0.1666667  -0.1666667), wk =   0.0740741
        k(    3) = (  -0.3333333   0.3333333  -0.3333333), wk =   0.0740741
        k(    4) = (   0.5000000  -0.5000000   0.5000000), wk =   0.0370370
        k(    5) = (   0.0000000   0.3333333   0.0000000), wk =   0.0555556
        k(    6) = (  -0.1666667   0.5000000  -0.1666667), wk =   0.2222222
        k(    7) = (   0.6666667  -0.3333333   0.6666667), wk =   0.2222222
        k(    8) = (   0.5000000  -0.1666667   0.5000000), wk =   0.2222222
        k(    9) = (   0.3333333   0.0000000   0.3333333), wk =   0.1111111
        k(   10) = (   0.0000000   0.6666667   0.0000000), wk =   0.0555556
        k(   11) = (   0.8333333  -0.1666667   0.8333333), wk =   0.2222222
        k(   12) = (   0.6666667  -0.0000000   0.6666667), wk =   0.1111111
        k(   13) = (   0.0000000  -1.0000000   0.0000000), wk =   0.0277778
        k(   14) = (   0.6666667  -0.3333333   1.0000000), wk =   0.2222222
        k(   15) = (   0.5000000  -0.1666667   0.8333333), wk =   0.2222222
        k(   16) = (  -0.3333333  -1.0000000   0.0000000), wk =   0.1111111

     Dense  grid:    16865 G-vectors     FFT dimensions: (  36,  36,  36)

     Estimated max dynamical RAM per process >      17.18 MB

     Initial potential from superposition of free atoms

     starting charge       6.0000, renormalised to       8.0000
     Starting wfcs are   18 randomized atomic wfcs

     total cpu time spent up to now is        0.4 secs

     Self-consistent Calculation

     iteration #  1     ecut=    60.00 Ry     beta= 0.70
     Davidson diagonalization with overlap
     ethr =  1.00E-02,  avg # of iterations =  1.9

     total cpu time spent up to now is        0.6 secs

     total energy              =     -22.67129351 Ry
     estimated scf accuracy    <       0.64364590 Ry

     iteration #  2     ecut=    60.00 Ry     beta= 0.70
     Davidson diagonalization with overlap
     ethr =  8.05E-03,  avg # of iterations =  2.0

     total cpu time spent up to now is        0.8 secs

     total energy              =     -22.87412049 Ry
     estimated scf accuracy    <       0.12270626 Ry

     iteration #  3     ecut=    60.00 Ry     beta= 0.70
     Davidson diagonalization with overlap
     ethr =  1.53E-03,  avg # of iterations =  2.0

     negative rho (up, down):  6.388E-08 0.000E+00

     total cpu time spent up to now is        1.0 secs

     total energy              =     -22.88758428 Ry
     estimated scf accuracy    <       0.00356346 Ry

     iteration #  4     ecut=    60.00 Ry     beta= 0.70
     Davidson diagonalization with overlap
     ethr =  4.45E-05,  avg # of iterations =  2.2

     total cpu time spent up to now is        1.2 secs

     total energy              =     -22.88895137 Ry
     estimated scf accuracy    <       0.00219671 Ry

     iteration #  5     ecut=    60.00 Ry     beta= 0.70
     Davidson diagonalization with overlap
     ethr =  2.75E-05,  avg # of iterations =  1.3

     total cpu time spent up to now is        1.3 secs

     total energy              =     -22.88904537 Ry
     estimated scf accuracy    <       0.00020011 Ry

     iteration #  6     ecut=    60.00 Ry     beta= 0.70
     Davidson diagonalization with overlap
     ethr =  2.50E-06,  avg # of iterations =  2.6

     total cpu time spent up to now is        1.6 secs

     total energy              =     -22.88911364 Ry
     estimated scf accuracy    <       0.00000027 Ry

     iteration #  7     ecut=    60.00 Ry     beta= 0.70
     Davidson diagonalization with overlap
     ethr =  3.38E-09,  avg # of iterations =  6.4

     total cpu time spent up to now is        1.9 secs

     total energy              =     -22.88911557 Ry
     estimated scf accuracy    <       0.00000028 Ry

     iteration #  8     ecut=    60.00 Ry     beta= 0.70
     Davidson diagonalization with overlap
     ethr =  3.38E-09,  avg # of iterations =  2.0

     total cpu time spent up to now is        2.1 secs

     total energy              =     -22.88911564 Ry
     estimated scf accuracy    <       0.00000008 Ry

     iteration #  9     ecut=    60.00 Ry     beta= 0.70
     Davidson diagonalization with overlap
     ethr =  9.84E-10,  avg # of iterations =  2.0

     total cpu time spent up to now is        2.3 secs

     End of self-consistent calculation

          k = 0.0000 0.0000 0.0000 (  2085 PWs)   bands (ev):

   -10.0681   2.3684   2.3684   2.3684

          k =-0.1667 0.1667-0.1667 (  2112 PWs)   bands (ev):

    -9.8505   0.6722   2.1701   2.1701

          k =-0.3333 0.3333-0.3333 (  2102 PWs)   bands (ev):

    -9.3211  -1.4869   1.8311   1.8311

          k = 0.5000-0.5000 0.5000 (  2120 PWs)   bands (ev):

    -8.9827  -2.4363   1.6828   1.6828

          k = 0.0000 0.3333 0.0000 (  2097 PWs)   bands (ev):

    -9.7780   0.7257   1.7922   1.7922

          k =-0.1667 0.5000-0.1667 (  2096 PWs)   bands (ev):

    -9.3457  -0.8941   1.2887   1.3988

          k = 0.6667-0.3333 0.6667 (  2108 PWs)   bands (ev):

    -8.9024  -2.1233   0.7104   1.3405

          k = 0.5000-0.1667 0.5000 (  2110 PWs)   bands (ev):

    -9.0179  -1.8272   0.5358   1.6503

          k = 0.3333 0.0000 0.3333 (  2109 PWs)   bands (ev):

    -9.5228  -0.4280   1.1121   2.0800

          k = 0.0000 0.6667 0.0000 (  2092 PWs)   bands (ev):

    -9.0708  -1.2390   0.8949   0.8949

          k = 0.8333-0.1667 0.8333 (  2126 PWs)   bands (ev):

    -8.7199  -1.8624   0.0736   0.7688

          k = 0.6667-0.0000 0.6667 (  2121 PWs)   bands (ev):

    -8.6916  -1.8080  -0.5878   1.1037

          k = 0.0000-1.0000 0.0000 (  2100 PWs)   bands (ev):

    -8.6148  -2.1266   0.5219   0.5219

          k = 0.6667-0.3333 1.0000 (  2113 PWs)   bands (ev):

    -8.9354  -1.5416   0.1673   1.0727

          k = 0.5000-0.1667 0.8333 (  2108 PWs)   bands (ev):

    -8.6915  -1.8925  -0.2506   0.7503

          k =-0.3333-1.0000 0.0000 (  2126 PWs)   bands (ev):

    -8.5899  -1.8884  -0.0671   0.1654

     highest occupied level (ev):     2.3684

!    total energy              =     -22.88911566 Ry
     estimated scf accuracy    <          4.2E-09 Ry

     The total energy is the sum of the following terms:
     one-electron contribution =      -1.15736616 Ry
     hartree contribution      =       3.49148208 Ry
     xc contribution           =      -5.43854919 Ry
     ewald contribution        =     -19.78468238 Ry

     convergence has been achieved in   9 iterations

     Writing all to output data dir ./SCRATCH/zns.save/

     init_run     :      0.41s CPU      0.41s WALL (       1 calls)
     electrons    :      1.67s CPU      1.83s WALL (       1 calls)

     Called by init_run:
     wfcinit      :      0.27s CPU      0.27s WALL (       1 calls)
     potinit      :      0.00s CPU      0.01s WALL (       1 calls)
     hinit0       :      0.12s CPU      0.12s WALL (       1 calls)

     Called by electrons:
     c_bands      :      1.42s CPU      1.53s WALL (       9 calls)
     sum_band     :      0.22s CPU      0.25s WALL (       9 calls)
     v_of_rho     :      0.02s CPU      0.02s WALL (      10 calls)
     mix_rho      :      0.02s CPU      0.02s WALL (       9 calls)

     Called by c_bands:
     init_us_2    :      0.08s CPU      0.12s WALL (     304 calls)
     init_us_2:cp :      0.08s CPU      0.12s WALL (     304 calls)
     cegterg      :      1.25s CPU      1.38s WALL (     144 calls)

     Called by *egterg:
     cdiaghg      :      0.00s CPU      0.01s WALL (     504 calls)
     h_psi        :      1.33s CPU      1.45s WALL (     520 calls)
     g_psi        :      0.00s CPU      0.01s WALL (     360 calls)

     Called by h_psi:
     h_psi:calbec :      0.09s CPU      0.09s WALL (     520 calls)
     vloc_psi     :      1.19s CPU      1.29s WALL (     520 calls)
     add_vuspsi   :      0.05s CPU      0.06s WALL (     520 calls)

     General routines
     calbec       :      0.09s CPU      0.09s WALL (     520 calls)
     fft          :      0.00s CPU      0.01s WALL (      29 calls)
     ffts         :      0.00s CPU      0.00s WALL (       9 calls)
     fftw         :      1.27s CPU      1.31s WALL (    4728 calls)


     PWSCF        :      2.12s CPU      2.28s WALL


   This run was terminated on:  11:14:55  26May2024            

=------------------------------------------------------------------------------=
   JOB DONE.
=------------------------------------------------------------------------------=
