
     Program PWSCF v.7.2 starts on  8Jun2024 at 10:22:19 

     This program is part of the open-source Quantum ESPRESSO suite
     for quantum simulation of materials; please cite
         "P. Giannozzi et al., J. Phys.:Condens. Matter 21 395502 (2009);
         "P. Giannozzi et al., J. Phys.:Condens. Matter 29 465901 (2017);
         "P. Giannozzi et al., J. Chem. Phys. 152 154105 (2020);
          URL http://www.quantum-espresso.org", 
     in publications or presentations arising from this work. More details at
     http://www.quantum-espresso.org/quote

     Serial version
     9564 MiB available memory on the printing compute node when the environment starts

     Waiting for input...
     Reading input from standard input

     Current dimensions of program PWSCF are:
     Max number of different atomic species (ntypx) = 10
     Max number of k-points (npk) =  40000
     Max angular momentum in pseudopotentials (lmaxx) =  4


     G-vector sticks info
     --------------------
     sticks:   dense  smooth     PW     G-vecs:    dense   smooth      PW
     Sum         859     859    253                16865    16865    2733

     Using Slab Decomposition



     bravais-lattice index     =            2
     lattice parameter (alat)  =      10.2423  a.u.
     unit-cell volume          =     268.6175 (a.u.)^3
     number of atoms/cell      =            2
     number of atomic types    =            2
     number of electrons       =        26.00
     number of Kohn-Sham states=           13
     kinetic-energy cutoff     =      60.0000  Ry
     charge density cutoff     =     240.0000  Ry
     scf convergence threshold =      1.0E-08
     mixing beta               =       0.7000
     number of iterations used =            8  plain     mixing
     Exchange-correlation= PBE
                           (   1   4   3   4   0   0   0)

     celldm(1)=  10.242315  celldm(2)=   0.000000  celldm(3)=   0.000000
     celldm(4)=   0.000000  celldm(5)=   0.000000  celldm(6)=   0.000000

     crystal axes: (cart. coord. in units of alat)
               a(1) = (  -0.500000   0.000000   0.500000 )  
               a(2) = (   0.000000   0.500000   0.500000 )  
               a(3) = (  -0.500000   0.500000   0.000000 )  

     reciprocal axes: (cart. coord. in units 2 pi/alat)
               b(1) = ( -1.000000 -1.000000  1.000000 )  
               b(2) = (  1.000000  1.000000  1.000000 )  
               b(3) = ( -1.000000  1.000000 -1.000000 )  


     PseudoPot. # 1 for Zn read from file:
     /home/paolo/project_labqsm/pseudopotentials/Zn_ONCV_PBE-1.2.upf
     MD5 check sum: 732f41c0cd6489a4b50a33b4ec99a2d3
     Pseudo is Norm-conserving, Zval = 20.0
     Generated using ONCVPSP code by D. R. Hamann
     Using radial grid of  602 points,  6 beta functions with: 
                l(1) =   0
                l(2) =   0
                l(3) =   1
                l(4) =   1
                l(5) =   2
                l(6) =   2

     PseudoPot. # 2 for S  read from file:
     /home/paolo/project_labqsm/pseudopotentials/S_ONCV_PBE-1.2.upf
     MD5 check sum: f9d020296ee6110346977bfd66d424f6
     Pseudo is Norm-conserving, Zval =  6.0
     Generated using ONCVPSP code by D. R. Hamann
     Using radial grid of  602 points,  4 beta functions with: 
                l(1) =   0
                l(2) =   0
                l(3) =   1
                l(4) =   1

     atomic species   valence    mass     pseudopotential
        Zn            20.00    65.38000     Zn( 1.00)
        S              6.00    32.06000     S ( 1.00)

     24 Sym. Ops. (no inversion) found



   Cartesian axes

     site n.     atom                  positions (alat units)
         1           Zn  tau(   1) = (   0.0000000   0.0000000   0.0000000  )
         2           S   tau(   2) = (   0.2500000   0.2500000   0.2500000  )

     number of k points=     8
                       cart. coord. in units 2pi/alat
        k(    1) = (   0.0000000   0.0000000   0.0000000), wk =   0.0312500
        k(    2) = (  -0.2500000   0.2500000  -0.2500000), wk =   0.2500000
        k(    3) = (   0.5000000  -0.5000000   0.5000000), wk =   0.1250000
        k(    4) = (   0.0000000   0.5000000   0.0000000), wk =   0.1875000
        k(    5) = (   0.7500000  -0.2500000   0.7500000), wk =   0.7500000
        k(    6) = (   0.5000000   0.0000000   0.5000000), wk =   0.3750000
        k(    7) = (   0.0000000  -1.0000000   0.0000000), wk =   0.0937500
        k(    8) = (  -0.5000000  -1.0000000   0.0000000), wk =   0.1875000

     Dense  grid:    16865 G-vectors     FFT dimensions: (  36,  36,  36)

     Estimated max dynamical RAM per process >      19.53 MB

     Initial potential from superposition of free atoms

     starting charge      25.9670, renormalised to      26.0000
     Starting wfcs are random

     total cpu time spent up to now is        0.2 secs

     Self-consistent Calculation

     iteration #  1     ecut=    60.00 Ry     beta= 0.70
     Davidson diagonalization with overlap
     ethr =  1.00E-02,  avg # of iterations = 12.1

     total cpu time spent up to now is        1.2 secs

     total energy              =    -420.42499307 Ry
     estimated scf accuracy    <       0.31908197 Ry

     iteration #  2     ecut=    60.00 Ry     beta= 0.70
     Davidson diagonalization with overlap
     ethr =  1.23E-03,  avg # of iterations =  3.8

     total cpu time spent up to now is        1.6 secs

     total energy              =    -420.85785356 Ry
     estimated scf accuracy    <       0.41646265 Ry

     iteration #  3     ecut=    60.00 Ry     beta= 0.70
     Davidson diagonalization with overlap
     ethr =  1.23E-03,  avg # of iterations =  2.0

     total cpu time spent up to now is        1.9 secs

     total energy              =    -420.88550029 Ry
     estimated scf accuracy    <       0.03448861 Ry

     iteration #  4     ecut=    60.00 Ry     beta= 0.70
     Davidson diagonalization with overlap
     ethr =  1.33E-04,  avg # of iterations =  2.0

     total cpu time spent up to now is        2.2 secs

     total energy              =    -420.89652704 Ry
     estimated scf accuracy    <       0.00057488 Ry

     iteration #  5     ecut=    60.00 Ry     beta= 0.70
     Davidson diagonalization with overlap
     ethr =  2.21E-06,  avg # of iterations =  3.0

     total cpu time spent up to now is        2.6 secs

     total energy              =    -420.89675713 Ry
     estimated scf accuracy    <       0.00008701 Ry

     iteration #  6     ecut=    60.00 Ry     beta= 0.70
     Davidson diagonalization with overlap
     ethr =  3.35E-07,  avg # of iterations =  2.0

     total cpu time spent up to now is        2.9 secs

     total energy              =    -420.89672799 Ry
     estimated scf accuracy    <       0.00005817 Ry

     iteration #  7     ecut=    60.00 Ry     beta= 0.70
     Davidson diagonalization with overlap
     ethr =  2.24E-07,  avg # of iterations =  3.0

     total cpu time spent up to now is        3.3 secs

     total energy              =    -420.89675094 Ry
     estimated scf accuracy    <       0.00004009 Ry

     iteration #  8     ecut=    60.00 Ry     beta= 0.70
     Davidson diagonalization with overlap
     ethr =  1.54E-07,  avg # of iterations =  2.0

     total cpu time spent up to now is        3.6 secs

     total energy              =    -420.89675467 Ry
     estimated scf accuracy    <       0.00000238 Ry

     iteration #  9     ecut=    60.00 Ry     beta= 0.70
     Davidson diagonalization with overlap
     ethr =  9.17E-09,  avg # of iterations =  2.6

     total cpu time spent up to now is        3.9 secs

     total energy              =    -420.89675567 Ry
     estimated scf accuracy    <       0.00000013 Ry

     iteration # 10     ecut=    60.00 Ry     beta= 0.70
     Davidson diagonalization with overlap
     ethr =  5.01E-10,  avg # of iterations =  2.1

     total cpu time spent up to now is        4.3 secs

     End of self-consistent calculation

          k = 0.0000 0.0000 0.0000 (  2085 PWs)   bands (ev):

  -117.5285 -71.6844 -71.6844 -71.6844  -5.6698   1.0743   1.0743   1.0743
     1.5564   1.5564   7.4055   7.4055   7.4055

          k =-0.2500 0.2500-0.2500 (  2100 PWs)   bands (ev):

  -117.5285 -71.6844 -71.6844 -71.6844  -5.2538   1.1273   1.1400   1.1400
     1.5575   1.5575   4.5874   6.9441   6.9441

          k = 0.5000-0.5000 0.5000 (  2120 PWs)   bands (ev):

  -117.5285 -71.6845 -71.6844 -71.6844  -4.7562   1.1865   1.1865   1.5857
     1.5857   1.7577   2.1683   6.5519   6.5519

          k = 0.0000 0.5000 0.0000 (  2085 PWs)   bands (ev):

  -117.5285 -71.6844 -71.6844 -71.6844  -5.1146   1.0325   1.2184   1.2184
     1.5194   1.5929   4.8407   6.1883   6.1883

          k = 0.7500-0.2500 0.7500 (  2113 PWs)   bands (ev):

  -117.5285 -71.6845 -71.6844 -71.6844  -4.6143   1.1596   1.2951   1.4071
     1.5984   1.7233   2.9601   5.0375   5.8336

          k = 0.5000 0.0000 0.5000 (  2099 PWs)   bands (ev):

  -117.5285 -71.6845 -71.6844 -71.6844  -4.7820   1.1961   1.2278   1.3571
     1.5429   1.6182   3.4735   4.9276   6.5152

          k = 0.0000-1.0000 0.0000 (  2100 PWs)   bands (ev):

  -117.5285 -71.6845 -71.6844 -71.6844  -4.4489   1.0576   1.4091   1.4091
     1.6282   1.7744   2.8696   5.2169   5.2169

          k =-0.5000-1.0000 0.0000 (  2148 PWs)   bands (ev):

  -117.5285 -71.6845 -71.6845 -71.6844  -4.4432   1.2053   1.3479   1.5018
     1.5204   1.9487   2.8540   4.7005   4.7210

     highest occupied level (ev):     7.4055

!    total energy              =    -420.89675569 Ry
     estimated scf accuracy    <          9.7E-10 Ry

     The total energy is the sum of the following terms:
     one-electron contribution =    -338.97970247 Ry
     hartree contribution      =     173.04814423 Ry
     xc contribution           =     -41.00336089 Ry
     ewald contribution        =    -213.96183656 Ry

     convergence has been achieved in  10 iterations

     Writing all to output data dir ./SCRATCH/zns.save/

     init_run     :      0.14s CPU      0.17s WALL (       1 calls)
     electrons    :      4.05s CPU      4.08s WALL (       1 calls)

     Called by init_run:
     wfcinit      :      0.09s CPU      0.11s WALL (       1 calls)
     potinit      :      0.00s CPU      0.03s WALL (       1 calls)
     hinit0       :      0.03s CPU      0.03s WALL (       1 calls)

     Called by electrons:
     c_bands      :      3.53s CPU      3.52s WALL (      10 calls)
     sum_band     :      0.36s CPU      0.38s WALL (      10 calls)
     v_of_rho     :      0.14s CPU      0.17s WALL (      11 calls)
     mix_rho      :      0.02s CPU      0.02s WALL (      10 calls)

     Called by c_bands:
     init_us_2    :      0.11s CPU      0.07s WALL (     168 calls)
     init_us_2:cp :      0.11s CPU      0.07s WALL (     168 calls)
     cegterg      :      3.39s CPU      3.40s WALL (      80 calls)

     Called by *egterg:
     cdiaghg      :      0.03s CPU      0.04s WALL (     357 calls)
     h_psi        :      2.66s CPU      2.75s WALL (     365 calls)
     g_psi        :      0.05s CPU      0.02s WALL (     277 calls)

     Called by h_psi:
     h_psi:calbec :      0.31s CPU      0.21s WALL (     365 calls)
     vloc_psi     :      2.20s CPU      2.37s WALL (     365 calls)
     add_vuspsi   :      0.14s CPU      0.15s WALL (     365 calls)

     General routines
     calbec       :      0.31s CPU      0.21s WALL (     365 calls)
     fft          :      0.05s CPU      0.05s WALL (     109 calls)
     ffts         :      0.00s CPU      0.00s WALL (      10 calls)
     fftw         :      2.22s CPU      2.42s WALL (    8446 calls)


     PWSCF        :      4.20s CPU      4.28s WALL


   This run was terminated on:  10:22:23   8Jun2024            

=------------------------------------------------------------------------------=
   JOB DONE.
=------------------------------------------------------------------------------=
