
     Program PWSCF v.7.2 starts on 26May2024 at 11:14:59 

     This program is part of the open-source Quantum ESPRESSO suite
     for quantum simulation of materials; please cite
         "P. Giannozzi et al., J. Phys.:Condens. Matter 21 395502 (2009);
         "P. Giannozzi et al., J. Phys.:Condens. Matter 29 465901 (2017);
         "P. Giannozzi et al., J. Chem. Phys. 152 154105 (2020);
          URL http://www.quantum-espresso.org", 
     in publications or presentations arising from this work. More details at
     http://www.quantum-espresso.org/quote

     Serial version
     9848 MiB available memory on the printing compute node when the environment starts

     Waiting for input...
     Reading input from standard input

     Current dimensions of program PWSCF are:
     Max number of different atomic species (ntypx) = 10
     Max number of k-points (npk) =  40000
     Max angular momentum in pseudopotentials (lmaxx) =  4


     G-vector sticks info
     --------------------
     sticks:   dense  smooth     PW     G-vecs:    dense   smooth      PW
     Sum         859     859    253                16865    16865    2741

     Using Slab Decomposition



     bravais-lattice index     =            2
     lattice parameter (alat)  =      10.2423  a.u.
     unit-cell volume          =     268.6175 (a.u.)^3
     number of atoms/cell      =            2
     number of atomic types    =            2
     number of electrons       =         8.00
     number of Kohn-Sham states=            4
     kinetic-energy cutoff     =      60.0000  Ry
     charge density cutoff     =     240.0000  Ry
     scf convergence threshold =      1.0E-08
     mixing beta               =       0.7000
     number of iterations used =            8  plain     mixing
     Exchange-correlation= SLA-PZ-NOGX-NOGC
                           (   1   1   0   0   0   0   0)

     celldm(1)=  10.242315  celldm(2)=   0.000000  celldm(3)=   0.000000
     celldm(4)=   0.000000  celldm(5)=   0.000000  celldm(6)=   0.000000

     crystal axes: (cart. coord. in units of alat)
               a(1) = (  -0.500000   0.000000   0.500000 )  
               a(2) = (   0.000000   0.500000   0.500000 )  
               a(3) = (  -0.500000   0.500000   0.000000 )  

     reciprocal axes: (cart. coord. in units 2 pi/alat)
               b(1) = ( -1.000000 -1.000000  1.000000 )  
               b(2) = (  1.000000  1.000000  1.000000 )  
               b(3) = ( -1.000000  1.000000 -1.000000 )  


     PseudoPot. # 1 for Zn read from file:
     /home/paolo/project_labqsm/pseudopotentials/Zn.pz-hgh.UPF
     MD5 check sum: c1979979258da2eeca1fc2dcb474678d
     Pseudo is Norm-conserving, Zval =  2.0
     Generated in analytical, separable form
     Using radial grid of 1201 points,  6 beta functions with: 
                l(1) =   0
                l(2) =   0
                l(3) =   0
                l(4) =   1
                l(5) =   1
                l(6) =   2

     PseudoPot. # 2 for S  read from file:
     /home/paolo/project_labqsm/pseudopotentials/S.pz-hgh.UPF
     MD5 check sum: a0679cb0a74c01c481c24d5fd31ffa9b
     Pseudo is Norm-conserving, Zval =  6.0
     Generated in analytical, separable form
     Using radial grid of 1151 points,  3 beta functions with: 
                l(1) =   0
                l(2) =   0
                l(3) =   1

     atomic species   valence    mass     pseudopotential
        Zn             2.00    65.38000     Zn( 1.00)
        S              6.00    32.06000     S ( 1.00)

     24 Sym. Ops. (no inversion) found



   Cartesian axes

     site n.     atom                  positions (alat units)
         1           Zn  tau(   1) = (   0.0000000   0.0000000   0.0000000  )
         2           S   tau(   2) = (   0.2500000   0.2500000   0.2500000  )

     number of k points=    72
                       cart. coord. in units 2pi/alat
        k(    1) = (   0.0000000   0.0000000   0.0000000), wk =   0.0011574
        k(    2) = (  -0.0833333   0.0833333  -0.0833333), wk =   0.0092593
        k(    3) = (  -0.1666667   0.1666667  -0.1666667), wk =   0.0092593
        k(    4) = (  -0.2500000   0.2500000  -0.2500000), wk =   0.0092593
        k(    5) = (  -0.3333333   0.3333333  -0.3333333), wk =   0.0092593
        k(    6) = (  -0.4166667   0.4166667  -0.4166667), wk =   0.0092593
        k(    7) = (   0.5000000  -0.5000000   0.5000000), wk =   0.0046296
        k(    8) = (   0.0000000   0.1666667   0.0000000), wk =   0.0069444
        k(    9) = (  -0.0833333   0.2500000  -0.0833333), wk =   0.0277778
        k(   10) = (  -0.1666667   0.3333333  -0.1666667), wk =   0.0277778
        k(   11) = (  -0.2500000   0.4166667  -0.2500000), wk =   0.0277778
        k(   12) = (  -0.3333333   0.5000000  -0.3333333), wk =   0.0277778
        k(   13) = (   0.5833333  -0.4166667   0.5833333), wk =   0.0277778
        k(   14) = (   0.5000000  -0.3333333   0.5000000), wk =   0.0277778
        k(   15) = (   0.4166667  -0.2500000   0.4166667), wk =   0.0277778
        k(   16) = (   0.3333333  -0.1666667   0.3333333), wk =   0.0277778
        k(   17) = (   0.2500000  -0.0833333   0.2500000), wk =   0.0277778
        k(   18) = (   0.1666667  -0.0000000   0.1666667), wk =   0.0138889
        k(   19) = (   0.0000000   0.3333333   0.0000000), wk =   0.0069444
        k(   20) = (  -0.0833333   0.4166667  -0.0833333), wk =   0.0277778
        k(   21) = (  -0.1666667   0.5000000  -0.1666667), wk =   0.0277778
        k(   22) = (  -0.2500000   0.5833333  -0.2500000), wk =   0.0277778
        k(   23) = (   0.6666667  -0.3333333   0.6666667), wk =   0.0277778
        k(   24) = (   0.5833333  -0.2500000   0.5833333), wk =   0.0277778
        k(   25) = (   0.5000000  -0.1666667   0.5000000), wk =   0.0277778
        k(   26) = (   0.4166667  -0.0833333   0.4166667), wk =   0.0277778
        k(   27) = (   0.3333333   0.0000000   0.3333333), wk =   0.0138889
        k(   28) = (   0.0000000   0.5000000   0.0000000), wk =   0.0069444
        k(   29) = (  -0.0833333   0.5833333  -0.0833333), wk =   0.0277778
        k(   30) = (  -0.1666667   0.6666667  -0.1666667), wk =   0.0277778
        k(   31) = (   0.7500000  -0.2500000   0.7500000), wk =   0.0277778
        k(   32) = (   0.6666667  -0.1666667   0.6666667), wk =   0.0277778
        k(   33) = (   0.5833333  -0.0833333   0.5833333), wk =   0.0277778
        k(   34) = (   0.5000000   0.0000000   0.5000000), wk =   0.0138889
        k(   35) = (   0.0000000   0.6666667   0.0000000), wk =   0.0069444
        k(   36) = (  -0.0833333   0.7500000  -0.0833333), wk =   0.0277778
        k(   37) = (   0.8333333  -0.1666667   0.8333333), wk =   0.0277778
        k(   38) = (   0.7500000  -0.0833333   0.7500000), wk =   0.0277778
        k(   39) = (   0.6666667  -0.0000000   0.6666667), wk =   0.0138889
        k(   40) = (   0.0000000   0.8333333   0.0000000), wk =   0.0069444
        k(   41) = (   0.9166667  -0.0833333   0.9166667), wk =   0.0277778
        k(   42) = (   0.8333333   0.0000000   0.8333333), wk =   0.0138889
        k(   43) = (   0.0000000  -1.0000000   0.0000000), wk =   0.0034722
        k(   44) = (  -0.1666667   0.3333333   0.0000000), wk =   0.0277778
        k(   45) = (  -0.2500000   0.4166667  -0.0833333), wk =   0.0555556
        k(   46) = (  -0.3333333   0.5000000  -0.1666667), wk =   0.0555556
        k(   47) = (   0.5833333  -0.4166667   0.7500000), wk =   0.0555556
        k(   48) = (   0.5000000  -0.3333333   0.6666667), wk =   0.0277778
        k(   49) = (  -0.1666667   0.5000000   0.0000000), wk =   0.0277778
        k(   50) = (  -0.2500000   0.5833333  -0.0833333), wk =   0.0555556
        k(   51) = (   0.6666667  -0.3333333   0.8333333), wk =   0.0555556
        k(   52) = (   0.5833333  -0.2500000   0.7500000), wk =   0.0555556
        k(   53) = (   0.5000000  -0.1666667   0.6666667), wk =   0.0555556
        k(   54) = (   0.4166667  -0.0833333   0.5833333), wk =   0.0555556
        k(   55) = (   0.3333333   0.0000000   0.5000000), wk =   0.0277778
        k(   56) = (  -0.1666667   0.6666667  -0.0000000), wk =   0.0277778
        k(   57) = (   0.7500000  -0.2500000   0.9166667), wk =   0.0555556
        k(   58) = (   0.6666667  -0.1666667   0.8333333), wk =   0.0555556
        k(   59) = (   0.5833333  -0.0833333   0.7500000), wk =   0.0555556
        k(   60) = (   0.5000000   0.0000000   0.6666667), wk =   0.0277778
        k(   61) = (   0.8333333  -0.1666667   1.0000000), wk =   0.0277778
        k(   62) = (   0.7500000  -0.0833333   0.9166667), wk =   0.0555556
        k(   63) = (   0.6666667   0.0000000   0.8333333), wk =   0.0277778
        k(   64) = (  -0.1666667  -1.0000000  -0.0000000), wk =   0.0138889
        k(   65) = (   0.6666667  -0.3333333   1.0000000), wk =   0.0277778
        k(   66) = (   0.5833333  -0.2500000   0.9166667), wk =   0.0555556
        k(   67) = (   0.5000000  -0.1666667   0.8333333), wk =   0.0277778
        k(   68) = (   0.6666667  -0.1666667   1.0000000), wk =   0.0277778
        k(   69) = (   0.5833333  -0.0833333   0.9166667), wk =   0.0555556
        k(   70) = (   0.5000000   0.0000000   0.8333333), wk =   0.0277778
        k(   71) = (  -0.3333333  -1.0000000   0.0000000), wk =   0.0138889
        k(   72) = (  -0.5000000  -1.0000000   0.0000000), wk =   0.0069444

     Dense  grid:    16865 G-vectors     FFT dimensions: (  36,  36,  36)

     Estimated max dynamical RAM per process >      24.39 MB

     Initial potential from superposition of free atoms

     starting charge       6.0000, renormalised to       8.0000
     Starting wfcs are   18 randomized atomic wfcs

     total cpu time spent up to now is        1.4 secs

     Self-consistent Calculation

     iteration #  1     ecut=    60.00 Ry     beta= 0.70
     Davidson diagonalization with overlap
     ethr =  1.00E-02,  avg # of iterations =  2.0

     total cpu time spent up to now is        2.2 secs

     total energy              =     -22.66890452 Ry
     estimated scf accuracy    <       0.64878306 Ry

     iteration #  2     ecut=    60.00 Ry     beta= 0.70
     Davidson diagonalization with overlap
     ethr =  8.11E-03,  avg # of iterations =  2.0

     total cpu time spent up to now is        3.0 secs

     total energy              =     -22.87409706 Ry
     estimated scf accuracy    <       0.12492908 Ry

     iteration #  3     ecut=    60.00 Ry     beta= 0.70
     Davidson diagonalization with overlap
     ethr =  1.56E-03,  avg # of iterations =  2.0

     negative rho (up, down):  6.531E-08 0.000E+00

     total cpu time spent up to now is        3.8 secs

     total energy              =     -22.88767547 Ry
     estimated scf accuracy    <       0.00374302 Ry

     iteration #  4     ecut=    60.00 Ry     beta= 0.70
     Davidson diagonalization with overlap
     ethr =  4.68E-05,  avg # of iterations =  2.3

     total cpu time spent up to now is        4.7 secs

     total energy              =     -22.88914421 Ry
     estimated scf accuracy    <       0.00238682 Ry

     iteration #  5     ecut=    60.00 Ry     beta= 0.70
     Davidson diagonalization with overlap
     ethr =  2.98E-05,  avg # of iterations =  1.3

     total cpu time spent up to now is        5.4 secs

     total energy              =     -22.88924015 Ry
     estimated scf accuracy    <       0.00022410 Ry

     iteration #  6     ecut=    60.00 Ry     beta= 0.70
     Davidson diagonalization with overlap
     ethr =  2.80E-06,  avg # of iterations =  2.6

     total cpu time spent up to now is        6.3 secs

     total energy              =     -22.88931884 Ry
     estimated scf accuracy    <       0.00000027 Ry

     iteration #  7     ecut=    60.00 Ry     beta= 0.70
     Davidson diagonalization with overlap
     ethr =  3.40E-09,  avg # of iterations =  6.6

     total cpu time spent up to now is        7.8 secs

     total energy              =     -22.88932096 Ry
     estimated scf accuracy    <       0.00000085 Ry

     iteration #  8     ecut=    60.00 Ry     beta= 0.70
     Davidson diagonalization with overlap
     ethr =  3.40E-09,  avg # of iterations =  2.3

     total cpu time spent up to now is        8.7 secs

     End of self-consistent calculation

          k = 0.0000 0.0000 0.0000 (  2085 PWs)   bands (ev):

   -10.0703   2.3661   2.3661   2.3661

          k =-0.0833 0.0833-0.0833 (  2097 PWs)   bands (ev):

   -10.0143   1.7865   2.3106   2.3106

          k =-0.1667 0.1667-0.1667 (  2112 PWs)   bands (ev):

    -9.8527   0.6704   2.1678   2.1678

          k =-0.2500 0.2500-0.2500 (  2100 PWs)   bands (ev):

    -9.6070  -0.4865   1.9903   1.9903

          k =-0.3333 0.3333-0.3333 (  2102 PWs)   bands (ev):

    -9.3234  -1.4883   1.8290   1.8290

          k =-0.4167 0.4167-0.4167 (  2093 PWs)   bands (ev):

    -9.0826  -2.1843   1.7193   1.7193

          k = 0.5000-0.5000 0.5000 (  2120 PWs)   bands (ev):

    -8.9852  -2.4376   1.6807   1.6807

          k = 0.0000 0.1667 0.0000 (  2093 PWs)   bands (ev):

    -9.9957   1.7802   2.1992   2.1992

          k =-0.0833 0.2500-0.0833 (  2098 PWs)   bands (ev):

    -9.8692   0.9381   2.0148   2.0901

          k =-0.1667 0.3333-0.1667 (  2095 PWs)   bands (ev):

    -9.6507  -0.1472   1.8192   1.9210

          k =-0.2500 0.4167-0.2500 (  2105 PWs)   bands (ev):

    -9.3770  -1.1680   1.6641   1.7057

          k =-0.3333 0.5000-0.3333 (  2104 PWs)   bands (ev):

    -9.1160  -1.9526   1.5051   1.5814

          k = 0.5833-0.4167 0.5833 (  2102 PWs)   bands (ev):

    -8.9642  -2.3517   1.3630   1.5842

          k = 0.5000-0.3333 0.5000 (  2100 PWs)   bands (ev):

    -8.9970  -2.2679   1.3059   1.6699

          k = 0.4167-0.2500 0.4167 (  2102 PWs)   bands (ev):

    -9.1966  -1.7242   1.3469   1.8223

          k = 0.3333-0.1667 0.3333 (  2098 PWs)   bands (ev):

    -9.4717  -0.8468   1.4868   2.0113

          k = 0.2500-0.0833 0.2500 (  2095 PWs)   bands (ev):

    -9.7326   0.1983   1.7158   2.1912

          k = 0.1667-0.0000 0.1667 (  2099 PWs)   bands (ev):

    -9.9230   1.1894   2.0200   2.3063

          k = 0.0000 0.3333 0.0000 (  2097 PWs)   bands (ev):

    -9.7802   0.7239   1.7901   1.7901

          k =-0.0833 0.4167-0.0833 (  2095 PWs)   bands (ev):

    -9.5968  -0.0208   1.5654   1.5702

          k =-0.1667 0.5000-0.1667 (  2096 PWs)   bands (ev):

    -9.3481  -0.8956   1.2867   1.3967

          k =-0.2500 0.5833-0.2500 (  2109 PWs)   bands (ev):

    -9.0893  -1.6538   0.9729   1.3168

          k = 0.6667-0.3333 0.6667 (  2108 PWs)   bands (ev):

    -8.9049  -2.1246   0.7086   1.3385

          k = 0.5833-0.2500 0.5833 (  2109 PWs)   bands (ev):

    -8.8772  -2.1868   0.5492   1.4562

          k = 0.5000-0.1667 0.5000 (  2110 PWs)   bands (ev):

    -9.0203  -1.8285   0.5340   1.6482

          k = 0.4167-0.0833 0.4167 (  2102 PWs)   bands (ev):

    -9.2660  -1.1715   0.7034   1.8747

          k = 0.3333 0.0000 0.3333 (  2109 PWs)   bands (ev):

    -9.5250  -0.4296   1.1102   2.0778

          k = 0.0000 0.5000 0.0000 (  2085 PWs)   bands (ev):

    -9.4524  -0.3296   1.3104   1.3104

          k =-0.0833 0.5833-0.0833 (  2097 PWs)   bands (ev):

    -9.2406  -0.9089   1.0169   1.1162

          k =-0.1667 0.6667-0.1667 (  2109 PWs)   bands (ev):

    -9.0060  -1.4831   0.5931   1.0201

          k = 0.7500-0.2500 0.7500 (  2113 PWs)   bands (ev):

    -8.8177  -1.8820   0.1631   1.0374

          k = 0.6667-0.1667 0.6667 (  2111 PWs)   bands (ev):

    -8.7502  -1.9953  -0.1425   1.1645

          k = 0.5833-0.0833 0.5833 (  2113 PWs)   bands (ev):

    -8.8348  -1.8161  -0.2183   1.3789

          k = 0.5000 0.0000 0.5000 (  2099 PWs)   bands (ev):

    -9.0318  -1.4903   0.0554   1.6376

          k = 0.0000 0.6667 0.0000 (  2092 PWs)   bands (ev):

    -9.0732  -1.2405   0.8929   0.8929

          k =-0.0833 0.7500-0.0833 (  2112 PWs)   bands (ev):

    -8.8825  -1.6227   0.5825   0.7699

          k = 0.8333-0.1667 0.8333 (  2126 PWs)   bands (ev):

    -8.7224  -1.8637   0.0720   0.7669

          k = 0.7500-0.0833 0.7500 (  2119 PWs)   bands (ev):

    -8.6501  -1.8941  -0.4119   0.8840

          k = 0.6667-0.0000 0.6667 (  2121 PWs)   bands (ev):

    -8.6941  -1.8093  -0.5894   1.1017

          k = 0.0000 0.8333 0.0000 (  2112 PWs)   bands (ev):

    -8.7493  -1.8876   0.6163   0.6163

          k = 0.9167-0.0833 0.9167 (  2109 PWs)   bands (ev):

    -8.6466  -2.0372   0.3476   0.5842

          k = 0.8333 0.0000 0.8333 (  2111 PWs)   bands (ev):

    -8.6097  -1.9976  -0.1214   0.6783

          k = 0.0000-1.0000 0.0000 (  2100 PWs)   bands (ev):

    -8.6174  -2.1279   0.5201   0.5201

          k =-0.1667 0.3333 0.0000 (  2091 PWs)   bands (ev):

    -9.7139   0.2882   1.5869   2.0173

          k =-0.2500 0.4167-0.0833 (  2098 PWs)   bands (ev):

    -9.4791  -0.5802   1.2167   1.8648

          k =-0.3333 0.5000-0.1667 (  2108 PWs)   bands (ev):

    -9.2104  -1.4262   0.9809   1.6656

          k = 0.5833-0.4167 0.7500 (  2108 PWs)   bands (ev):

    -8.9844  -2.0409   0.8578   1.5020

          k = 0.5000-0.3333 0.6667 (  2100 PWs)   bands (ev):

    -8.8936  -2.2676   0.8214   1.4386

          k =-0.1667 0.5000 0.0000 (  2095 PWs)   bands (ev):

    -9.3980  -0.5872   1.0888   1.4809

          k =-0.2500 0.5833-0.0833 (  2103 PWs)   bands (ev):

    -9.1538  -1.2311   0.6960   1.2985

          k = 0.6667-0.3333 0.8333 (  2109 PWs)   bands (ev):

    -8.9270  -1.7758   0.3970   1.1509

          k = 0.5833-0.2500 0.7500 (  2109 PWs)   bands (ev):

    -8.7997  -2.0564   0.1876   1.1333

          k = 0.5000-0.1667 0.6667 (  2110 PWs)   bands (ev):

    -8.8305  -1.9812   0.1040   1.2523

          k = 0.4167-0.0833 0.5833 (  2105 PWs)   bands (ev):

    -9.0041  -1.5958   0.2107   1.4647

          k = 0.3333 0.0000 0.5000 (  2102 PWs)   bands (ev):

    -9.2461  -1.0734   0.5849   1.6998

          k =-0.1667 0.6667-0.0000 (  2108 PWs)   bands (ev):

    -9.0364  -1.3348   0.6666   0.9414

          k = 0.7500-0.2500 0.9167 (  2108 PWs)   bands (ev):

    -8.8354  -1.6944   0.2431   0.7910

          k = 0.6667-0.1667 0.8333 (  2116 PWs)   bands (ev):

    -8.7036  -1.8788  -0.1842   0.7937

          k = 0.5833-0.0833 0.7500 (  2119 PWs)   bands (ev):

    -8.6941  -1.8542  -0.4359   0.9417

          k = 0.5000 0.0000 0.6667 (  2117 PWs)   bands (ev):

    -8.8104  -1.7226  -0.3259   1.1890

          k = 0.8333-0.1667 1.0000 (  2117 PWs)   bands (ev):

    -8.7317  -1.8627   0.4019   0.5478

          k = 0.7500-0.0833 0.9167 (  2122 PWs)   bands (ev):

    -8.6317  -1.9365  -0.0453   0.5200

          k = 0.6667 0.0000 0.8333 (  2120 PWs)   bands (ev):

    -8.6181  -1.8612  -0.4602   0.6755

          k =-0.1667-1.0000-0.0000 (  2114 PWs)   bands (ev):

    -8.6091  -2.0585   0.3248   0.3926

          k = 0.6667-0.3333 1.0000 (  2113 PWs)   bands (ev):

    -8.9379  -1.5430   0.1656   1.0708

          k = 0.5833-0.2500 0.9167 (  2115 PWs)   bands (ev):

    -8.7626  -1.7928  -0.1532   0.8419

          k = 0.5000-0.1667 0.8333 (  2108 PWs)   bands (ev):

    -8.6940  -1.8938  -0.2522   0.7484

          k = 0.6667-0.1667 1.0000 (  2111 PWs)   bands (ev):

    -8.6893  -1.8086  -0.0553   0.4659

          k = 0.5833-0.0833 0.9167 (  2128 PWs)   bands (ev):

    -8.6167  -1.8149  -0.3351   0.3566

          k = 0.5000 0.0000 0.8333 (  2125 PWs)   bands (ev):

    -8.6451  -1.7822  -0.4313   0.5253

          k =-0.3333-1.0000 0.0000 (  2126 PWs)   bands (ev):

    -8.5925  -1.8897  -0.0688   0.1637

          k =-0.5000-1.0000 0.0000 (  2148 PWs)   bands (ev):

    -8.5841  -1.7803  -0.2799   0.0595

     highest occupied level (ev):     2.3661

!    total energy              =     -22.88932114 Ry
     estimated scf accuracy    <          7.6E-09 Ry

     The total energy is the sum of the following terms:
     one-electron contribution =      -1.15650764 Ry
     hartree contribution      =       3.48996925 Ry
     xc contribution           =      -5.43810037 Ry
     ewald contribution        =     -19.78468238 Ry

     convergence has been achieved in   8 iterations

     Writing all to output data dir ./SCRATCH/zns.save/

     init_run     :      1.30s CPU      1.35s WALL (       1 calls)
     electrons    :      7.05s CPU      7.32s WALL (       1 calls)

     Called by init_run:
     wfcinit      :      1.16s CPU      1.20s WALL (       1 calls)
     potinit      :      0.02s CPU      0.01s WALL (       1 calls)
     hinit0       :      0.11s CPU      0.12s WALL (       1 calls)

     Called by electrons:
     c_bands      :      6.09s CPU      6.32s WALL (       8 calls)
     sum_band     :      0.94s CPU      0.96s WALL (       8 calls)
     v_of_rho     :      0.02s CPU      0.02s WALL (       9 calls)
     mix_rho      :      0.00s CPU      0.02s WALL (       8 calls)

     Called by c_bands:
     init_us_2    :      0.39s CPU      0.48s WALL (    1224 calls)
     init_us_2:cp :      0.39s CPU      0.48s WALL (    1224 calls)
     cegterg      :      5.56s CPU      5.70s WALL (     576 calls)

     Called by *egterg:
     cdiaghg      :      0.03s CPU      0.04s WALL (    2094 calls)
     h_psi        :      5.81s CPU      6.05s WALL (    2166 calls)
     g_psi        :      0.03s CPU      0.03s WALL (    1518 calls)

     Called by h_psi:
     h_psi:calbec :      0.45s CPU      0.37s WALL (    2166 calls)
     vloc_psi     :      5.19s CPU      5.37s WALL (    2166 calls)
     add_vuspsi   :      0.14s CPU      0.27s WALL (    2166 calls)

     General routines
     calbec       :      0.45s CPU      0.37s WALL (    2166 calls)
     fft          :      0.00s CPU      0.01s WALL (      26 calls)
     ffts         :      0.02s CPU      0.00s WALL (       8 calls)
     fftw         :      5.28s CPU      5.42s WALL (   19462 calls)


     PWSCF        :      8.38s CPU      8.75s WALL


   This run was terminated on:  11:15: 8  26May2024            

=------------------------------------------------------------------------------=
   JOB DONE.
=------------------------------------------------------------------------------=
