
     Program PWSCF v.7.2 starts on  8Jun2024 at 10:22:23 

     This program is part of the open-source Quantum ESPRESSO suite
     for quantum simulation of materials; please cite
         "P. Giannozzi et al., J. Phys.:Condens. Matter 21 395502 (2009);
         "P. Giannozzi et al., J. Phys.:Condens. Matter 29 465901 (2017);
         "P. Giannozzi et al., J. Chem. Phys. 152 154105 (2020);
          URL http://www.quantum-espresso.org", 
     in publications or presentations arising from this work. More details at
     http://www.quantum-espresso.org/quote

     Serial version
     9565 MiB available memory on the printing compute node when the environment starts

     Waiting for input...
     Reading input from standard input

     Current dimensions of program PWSCF are:
     Max number of different atomic species (ntypx) = 10
     Max number of k-points (npk) =  40000
     Max angular momentum in pseudopotentials (lmaxx) =  4


     G-vector sticks info
     --------------------
     sticks:   dense  smooth     PW     G-vecs:    dense   smooth      PW
     Sum         859     859    253                16865    16865    2741

     Using Slab Decomposition



     bravais-lattice index     =            2
     lattice parameter (alat)  =      10.2423  a.u.
     unit-cell volume          =     268.6175 (a.u.)^3
     number of atoms/cell      =            2
     number of atomic types    =            2
     number of electrons       =        26.00
     number of Kohn-Sham states=           13
     kinetic-energy cutoff     =      60.0000  Ry
     charge density cutoff     =     240.0000  Ry
     scf convergence threshold =      1.0E-08
     mixing beta               =       0.7000
     number of iterations used =            8  plain     mixing
     Exchange-correlation= PBE
                           (   1   4   3   4   0   0   0)

     celldm(1)=  10.242315  celldm(2)=   0.000000  celldm(3)=   0.000000
     celldm(4)=   0.000000  celldm(5)=   0.000000  celldm(6)=   0.000000

     crystal axes: (cart. coord. in units of alat)
               a(1) = (  -0.500000   0.000000   0.500000 )  
               a(2) = (   0.000000   0.500000   0.500000 )  
               a(3) = (  -0.500000   0.500000   0.000000 )  

     reciprocal axes: (cart. coord. in units 2 pi/alat)
               b(1) = ( -1.000000 -1.000000  1.000000 )  
               b(2) = (  1.000000  1.000000  1.000000 )  
               b(3) = ( -1.000000  1.000000 -1.000000 )  


     PseudoPot. # 1 for Zn read from file:
     /home/paolo/project_labqsm/pseudopotentials/Zn_ONCV_PBE-1.2.upf
     MD5 check sum: 732f41c0cd6489a4b50a33b4ec99a2d3
     Pseudo is Norm-conserving, Zval = 20.0
     Generated using ONCVPSP code by D. R. Hamann
     Using radial grid of  602 points,  6 beta functions with: 
                l(1) =   0
                l(2) =   0
                l(3) =   1
                l(4) =   1
                l(5) =   2
                l(6) =   2

     PseudoPot. # 2 for S  read from file:
     /home/paolo/project_labqsm/pseudopotentials/S_ONCV_PBE-1.2.upf
     MD5 check sum: f9d020296ee6110346977bfd66d424f6
     Pseudo is Norm-conserving, Zval =  6.0
     Generated using ONCVPSP code by D. R. Hamann
     Using radial grid of  602 points,  4 beta functions with: 
                l(1) =   0
                l(2) =   0
                l(3) =   1
                l(4) =   1

     atomic species   valence    mass     pseudopotential
        Zn            20.00    65.38000     Zn( 1.00)
        S              6.00    32.06000     S ( 1.00)

     24 Sym. Ops. (no inversion) found



   Cartesian axes

     site n.     atom                  positions (alat units)
         1           Zn  tau(   1) = (   0.0000000   0.0000000   0.0000000  )
         2           S   tau(   2) = (   0.2500000   0.2500000   0.2500000  )

     number of k points=    16
                       cart. coord. in units 2pi/alat
        k(    1) = (   0.0000000   0.0000000   0.0000000), wk =   0.0092593
        k(    2) = (  -0.1666667   0.1666667  -0.1666667), wk =   0.0740741
        k(    3) = (  -0.3333333   0.3333333  -0.3333333), wk =   0.0740741
        k(    4) = (   0.5000000  -0.5000000   0.5000000), wk =   0.0370370
        k(    5) = (   0.0000000   0.3333333   0.0000000), wk =   0.0555556
        k(    6) = (  -0.1666667   0.5000000  -0.1666667), wk =   0.2222222
        k(    7) = (   0.6666667  -0.3333333   0.6666667), wk =   0.2222222
        k(    8) = (   0.5000000  -0.1666667   0.5000000), wk =   0.2222222
        k(    9) = (   0.3333333   0.0000000   0.3333333), wk =   0.1111111
        k(   10) = (   0.0000000   0.6666667   0.0000000), wk =   0.0555556
        k(   11) = (   0.8333333  -0.1666667   0.8333333), wk =   0.2222222
        k(   12) = (   0.6666667  -0.0000000   0.6666667), wk =   0.1111111
        k(   13) = (   0.0000000  -1.0000000   0.0000000), wk =   0.0277778
        k(   14) = (   0.6666667  -0.3333333   1.0000000), wk =   0.2222222
        k(   15) = (   0.5000000  -0.1666667   0.8333333), wk =   0.2222222
        k(   16) = (  -0.3333333  -1.0000000   0.0000000), wk =   0.1111111

     Dense  grid:    16865 G-vectors     FFT dimensions: (  36,  36,  36)

     Estimated max dynamical RAM per process >      22.87 MB

     Initial potential from superposition of free atoms

     starting charge      25.9670, renormalised to      26.0000
     Starting wfcs are random

     total cpu time spent up to now is        0.3 secs

     Self-consistent Calculation

     iteration #  1     ecut=    60.00 Ry     beta= 0.70
     Davidson diagonalization with overlap
     ethr =  1.00E-02,  avg # of iterations = 12.7

     total cpu time spent up to now is        2.3 secs

     total energy              =    -420.34599893 Ry
     estimated scf accuracy    <       0.35655553 Ry

     iteration #  2     ecut=    60.00 Ry     beta= 0.70
     Davidson diagonalization with overlap
     ethr =  1.37E-03,  avg # of iterations =  3.8

     total cpu time spent up to now is        3.1 secs

     total energy              =    -420.85525887 Ry
     estimated scf accuracy    <       0.50353997 Ry

     iteration #  3     ecut=    60.00 Ry     beta= 0.70
     Davidson diagonalization with overlap
     ethr =  1.37E-03,  avg # of iterations =  2.0

     total cpu time spent up to now is        3.7 secs

     total energy              =    -420.88793912 Ry
     estimated scf accuracy    <       0.04466281 Ry

     iteration #  4     ecut=    60.00 Ry     beta= 0.70
     Davidson diagonalization with overlap
     ethr =  1.72E-04,  avg # of iterations =  2.0

     total cpu time spent up to now is        4.3 secs

     total energy              =    -420.89973621 Ry
     estimated scf accuracy    <       0.00037930 Ry

     iteration #  5     ecut=    60.00 Ry     beta= 0.70
     Davidson diagonalization with overlap
     ethr =  1.46E-06,  avg # of iterations =  3.6

     total cpu time spent up to now is        5.1 secs

     total energy              =    -420.89993711 Ry
     estimated scf accuracy    <       0.00015405 Ry

     iteration #  6     ecut=    60.00 Ry     beta= 0.70
     Davidson diagonalization with overlap
     ethr =  5.92E-07,  avg # of iterations =  2.0

     total cpu time spent up to now is        5.6 secs

     total energy              =    -420.89992343 Ry
     estimated scf accuracy    <       0.00003433 Ry

     iteration #  7     ecut=    60.00 Ry     beta= 0.70
     Davidson diagonalization with overlap
     ethr =  1.32E-07,  avg # of iterations =  3.0

     total cpu time spent up to now is        6.4 secs

     total energy              =    -420.89993995 Ry
     estimated scf accuracy    <       0.00002904 Ry

     iteration #  8     ecut=    60.00 Ry     beta= 0.70
     Davidson diagonalization with overlap
     ethr =  1.12E-07,  avg # of iterations =  2.0

     total cpu time spent up to now is        6.9 secs

     total energy              =    -420.89994129 Ry
     estimated scf accuracy    <       0.00000302 Ry

     iteration #  9     ecut=    60.00 Ry     beta= 0.70
     Davidson diagonalization with overlap
     ethr =  1.16E-08,  avg # of iterations =  2.0

     total cpu time spent up to now is        7.6 secs

     total energy              =    -420.89994229 Ry
     estimated scf accuracy    <       0.00000005 Ry

     iteration # 10     ecut=    60.00 Ry     beta= 0.70
     Davidson diagonalization with overlap
     ethr =  1.79E-10,  avg # of iterations =  3.1

     total cpu time spent up to now is        8.2 secs

     total energy              =    -420.89994230 Ry
     estimated scf accuracy    <       0.00000001 Ry

     iteration # 11     ecut=    60.00 Ry     beta= 0.70
     Davidson diagonalization with overlap
     ethr =  3.99E-11,  avg # of iterations =  1.7

     total cpu time spent up to now is        8.7 secs

     End of self-consistent calculation

          k = 0.0000 0.0000 0.0000 (  2085 PWs)   bands (ev):

  -117.5274 -71.6832 -71.6832 -71.6832  -5.6936   1.0729   1.0729   1.0729
     1.5582   1.5582   7.3833   7.3833   7.3833

          k =-0.1667 0.1667-0.1667 (  2112 PWs)   bands (ev):

  -117.5274 -71.6833 -71.6832 -71.6832  -5.4943   1.0821   1.1072   1.1072
     1.5553   1.5553   5.7107   7.1417   7.1417

          k =-0.3333 0.3333-0.3333 (  2102 PWs)   bands (ev):

  -117.5274 -71.6833 -71.6832 -71.6832  -5.0432   1.1656   1.1656   1.2416
     1.5695   1.5695   3.5254   6.7211   6.7211

          k = 0.5000-0.5000 0.5000 (  2120 PWs)   bands (ev):

  -117.5274 -71.6834 -71.6832 -71.6832  -4.7826   1.1856   1.1856   1.5874
     1.5874   1.7581   2.1545   6.5314   6.5314

          k = 0.0000 0.3333 0.0000 (  2097 PWs)   bands (ev):

  -117.5274 -71.6832 -71.6832 -71.6832  -5.4277   1.0447   1.1404   1.1404
     1.5326   1.5760   5.8124   6.7263   6.7263

          k =-0.1667 0.5000-0.1667 (  2096 PWs)   bands (ev):

  -117.5274 -71.6833 -71.6832 -71.6832  -5.0565   1.0901   1.2099   1.2254
     1.5408   1.5918   4.1826   6.1840   6.2546

          k = 0.6667-0.3333 0.6667 (  2108 PWs)   bands (ev):

  -117.5274 -71.6834 -71.6833 -71.6833  -4.7144   1.1804   1.2389   1.4675
     1.5929   1.7170   2.6175   5.5865   6.1551

          k = 0.5000-0.1667 0.5000 (  2110 PWs)   bands (ev):

  -117.5274 -71.6833 -71.6833 -71.6832  -4.8019   1.1911   1.2154   1.4056
     1.5558   1.6230   3.0610   5.4017   6.5038

          k = 0.3333 0.0000 0.3333 (  2109 PWs)   bands (ev):

  -117.5274 -71.6833 -71.6832 -71.6832  -5.2073   1.1225   1.1501   1.1676
     1.5375   1.5812   4.6509   5.9992   7.0097

          k = 0.0000 0.6667 0.0000 (  2092 PWs)   bands (ev):

  -117.5274 -71.6833 -71.6833 -71.6833  -4.8249   1.0343   1.3052   1.3052
     1.5510   1.6126   3.9252   5.6677   5.6677

          k = 0.8333-0.1667 0.8333 (  2126 PWs)   bands (ev):

  -117.5274 -71.6834 -71.6833 -71.6833  -4.5620   1.1140   1.3517   1.3913
     1.6110   1.7400   3.0680   4.8477   5.4984

          k = 0.6667-0.0000 0.6667 (  2121 PWs)   bands (ev):

  -117.5274 -71.6833 -71.6833 -71.6833  -4.5534   1.1821   1.3100   1.5020
     1.5727   1.8360   2.8452   4.2816   5.8817

          k = 0.0000-1.0000 0.0000 (  2100 PWs)   bands (ev):

  -117.5274 -71.6834 -71.6833 -71.6833  -4.4763   1.0550   1.4088   1.4088
     1.6302   1.7746   2.8603   5.1986   5.1986

          k = 0.6667-0.3333 1.0000 (  2113 PWs)   bands (ev):

  -117.5274 -71.6833 -71.6833 -71.6833  -4.7305   1.1673   1.2496   1.3662
     1.5805   1.6338   3.4302   4.9850   5.8981

          k = 0.5000-0.1667 0.8333 (  2108 PWs)   bands (ev):

  -117.5274 -71.6833 -71.6833 -71.6833  -4.5533   1.2054   1.2901   1.5088
     1.5494   1.8672   2.7486   4.6164   5.5363

          k =-0.3333-1.0000 0.0000 (  2126 PWs)   bands (ev):

  -117.5274 -71.6833 -71.6833 -71.6833  -4.4720   1.1666   1.3608   1.4468
     1.5799   1.9061   2.8473   4.8051   4.8222

     highest occupied level (ev):     7.3833

!    total energy              =    -420.89994230 Ry
     estimated scf accuracy    <          5.4E-09 Ry

     The total energy is the sum of the following terms:
     one-electron contribution =    -338.97706735 Ry
     hartree contribution      =     173.03712903 Ry
     xc contribution           =     -40.99816742 Ry
     ewald contribution        =    -213.96183656 Ry

     convergence has been achieved in  11 iterations

     Writing all to output data dir ./SCRATCH/zns.save/

     init_run     :      0.22s CPU      0.27s WALL (       1 calls)
     electrons    :      8.12s CPU      8.40s WALL (       1 calls)

     Called by init_run:
     wfcinit      :      0.17s CPU      0.20s WALL (       1 calls)
     potinit      :      0.02s CPU      0.03s WALL (       1 calls)
     hinit0       :      0.02s CPU      0.03s WALL (       1 calls)

     Called by electrons:
     c_bands      :      7.22s CPU      7.42s WALL (      11 calls)
     sum_band     :      0.78s CPU      0.80s WALL (      11 calls)
     v_of_rho     :      0.12s CPU      0.17s WALL (      12 calls)
     mix_rho      :      0.00s CPU      0.02s WALL (      11 calls)

     Called by c_bands:
     init_us_2    :      0.12s CPU      0.16s WALL (     368 calls)
     init_us_2:cp :      0.12s CPU      0.16s WALL (     368 calls)
     cegterg      :      7.02s CPU      7.15s WALL (     176 calls)

     Called by *egterg:
     cdiaghg      :      0.12s CPU      0.10s WALL (     781 calls)
     h_psi        :      5.77s CPU      5.75s WALL (     797 calls)
     g_psi        :      0.02s CPU      0.03s WALL (     605 calls)

     Called by h_psi:
     h_psi:calbec :      0.36s CPU      0.45s WALL (     797 calls)
     vloc_psi     :      5.03s CPU      4.94s WALL (     797 calls)
     add_vuspsi   :      0.36s CPU      0.33s WALL (     797 calls)

     General routines
     calbec       :      0.36s CPU      0.45s WALL (     797 calls)
     fft          :      0.06s CPU      0.05s WALL (     119 calls)
     ffts         :      0.00s CPU      0.01s WALL (      11 calls)
     fftw         :      5.00s CPU      5.05s WALL (   18110 calls)


     PWSCF        :      8.36s CPU      8.70s WALL


   This run was terminated on:  10:22:32   8Jun2024            

=------------------------------------------------------------------------------=
   JOB DONE.
=------------------------------------------------------------------------------=
