
     Program PWSCF v.7.2 starts on  8Jun2024 at 10:22:48 

     This program is part of the open-source Quantum ESPRESSO suite
     for quantum simulation of materials; please cite
         "P. Giannozzi et al., J. Phys.:Condens. Matter 21 395502 (2009);
         "P. Giannozzi et al., J. Phys.:Condens. Matter 29 465901 (2017);
         "P. Giannozzi et al., J. Chem. Phys. 152 154105 (2020);
          URL http://www.quantum-espresso.org", 
     in publications or presentations arising from this work. More details at
     http://www.quantum-espresso.org/quote

     Serial version
     9586 MiB available memory on the printing compute node when the environment starts

     Waiting for input...
     Reading input from standard input

     Current dimensions of program PWSCF are:
     Max number of different atomic species (ntypx) = 10
     Max number of k-points (npk) =  40000
     Max angular momentum in pseudopotentials (lmaxx) =  4


     G-vector sticks info
     --------------------
     sticks:   dense  smooth     PW     G-vecs:    dense   smooth      PW
     Sum         859     859    253                16865    16865    2741

     Using Slab Decomposition



     bravais-lattice index     =            2
     lattice parameter (alat)  =      10.2423  a.u.
     unit-cell volume          =     268.6175 (a.u.)^3
     number of atoms/cell      =            2
     number of atomic types    =            2
     number of electrons       =        26.00
     number of Kohn-Sham states=           13
     kinetic-energy cutoff     =      60.0000  Ry
     charge density cutoff     =     240.0000  Ry
     scf convergence threshold =      1.0E-08
     mixing beta               =       0.7000
     number of iterations used =            8  plain     mixing
     Exchange-correlation= PBE
                           (   1   4   3   4   0   0   0)

     celldm(1)=  10.242315  celldm(2)=   0.000000  celldm(3)=   0.000000
     celldm(4)=   0.000000  celldm(5)=   0.000000  celldm(6)=   0.000000

     crystal axes: (cart. coord. in units of alat)
               a(1) = (  -0.500000   0.000000   0.500000 )  
               a(2) = (   0.000000   0.500000   0.500000 )  
               a(3) = (  -0.500000   0.500000   0.000000 )  

     reciprocal axes: (cart. coord. in units 2 pi/alat)
               b(1) = ( -1.000000 -1.000000  1.000000 )  
               b(2) = (  1.000000  1.000000  1.000000 )  
               b(3) = ( -1.000000  1.000000 -1.000000 )  


     PseudoPot. # 1 for Zn read from file:
     /home/paolo/project_labqsm/pseudopotentials/Zn_ONCV_PBE-1.2.upf
     MD5 check sum: 732f41c0cd6489a4b50a33b4ec99a2d3
     Pseudo is Norm-conserving, Zval = 20.0
     Generated using ONCVPSP code by D. R. Hamann
     Using radial grid of  602 points,  6 beta functions with: 
                l(1) =   0
                l(2) =   0
                l(3) =   1
                l(4) =   1
                l(5) =   2
                l(6) =   2

     PseudoPot. # 2 for S  read from file:
     /home/paolo/project_labqsm/pseudopotentials/S_ONCV_PBE-1.2.upf
     MD5 check sum: f9d020296ee6110346977bfd66d424f6
     Pseudo is Norm-conserving, Zval =  6.0
     Generated using ONCVPSP code by D. R. Hamann
     Using radial grid of  602 points,  4 beta functions with: 
                l(1) =   0
                l(2) =   0
                l(3) =   1
                l(4) =   1

     atomic species   valence    mass     pseudopotential
        Zn            20.00    65.38000     Zn( 1.00)
        S              6.00    32.06000     S ( 1.00)

     24 Sym. Ops. (no inversion) found



   Cartesian axes

     site n.     atom                  positions (alat units)
         1           Zn  tau(   1) = (   0.0000000   0.0000000   0.0000000  )
         2           S   tau(   2) = (   0.2500000   0.2500000   0.2500000  )

     number of k points=    72
                       cart. coord. in units 2pi/alat
        k(    1) = (   0.0000000   0.0000000   0.0000000), wk =   0.0011574
        k(    2) = (  -0.0833333   0.0833333  -0.0833333), wk =   0.0092593
        k(    3) = (  -0.1666667   0.1666667  -0.1666667), wk =   0.0092593
        k(    4) = (  -0.2500000   0.2500000  -0.2500000), wk =   0.0092593
        k(    5) = (  -0.3333333   0.3333333  -0.3333333), wk =   0.0092593
        k(    6) = (  -0.4166667   0.4166667  -0.4166667), wk =   0.0092593
        k(    7) = (   0.5000000  -0.5000000   0.5000000), wk =   0.0046296
        k(    8) = (   0.0000000   0.1666667   0.0000000), wk =   0.0069444
        k(    9) = (  -0.0833333   0.2500000  -0.0833333), wk =   0.0277778
        k(   10) = (  -0.1666667   0.3333333  -0.1666667), wk =   0.0277778
        k(   11) = (  -0.2500000   0.4166667  -0.2500000), wk =   0.0277778
        k(   12) = (  -0.3333333   0.5000000  -0.3333333), wk =   0.0277778
        k(   13) = (   0.5833333  -0.4166667   0.5833333), wk =   0.0277778
        k(   14) = (   0.5000000  -0.3333333   0.5000000), wk =   0.0277778
        k(   15) = (   0.4166667  -0.2500000   0.4166667), wk =   0.0277778
        k(   16) = (   0.3333333  -0.1666667   0.3333333), wk =   0.0277778
        k(   17) = (   0.2500000  -0.0833333   0.2500000), wk =   0.0277778
        k(   18) = (   0.1666667  -0.0000000   0.1666667), wk =   0.0138889
        k(   19) = (   0.0000000   0.3333333   0.0000000), wk =   0.0069444
        k(   20) = (  -0.0833333   0.4166667  -0.0833333), wk =   0.0277778
        k(   21) = (  -0.1666667   0.5000000  -0.1666667), wk =   0.0277778
        k(   22) = (  -0.2500000   0.5833333  -0.2500000), wk =   0.0277778
        k(   23) = (   0.6666667  -0.3333333   0.6666667), wk =   0.0277778
        k(   24) = (   0.5833333  -0.2500000   0.5833333), wk =   0.0277778
        k(   25) = (   0.5000000  -0.1666667   0.5000000), wk =   0.0277778
        k(   26) = (   0.4166667  -0.0833333   0.4166667), wk =   0.0277778
        k(   27) = (   0.3333333   0.0000000   0.3333333), wk =   0.0138889
        k(   28) = (   0.0000000   0.5000000   0.0000000), wk =   0.0069444
        k(   29) = (  -0.0833333   0.5833333  -0.0833333), wk =   0.0277778
        k(   30) = (  -0.1666667   0.6666667  -0.1666667), wk =   0.0277778
        k(   31) = (   0.7500000  -0.2500000   0.7500000), wk =   0.0277778
        k(   32) = (   0.6666667  -0.1666667   0.6666667), wk =   0.0277778
        k(   33) = (   0.5833333  -0.0833333   0.5833333), wk =   0.0277778
        k(   34) = (   0.5000000   0.0000000   0.5000000), wk =   0.0138889
        k(   35) = (   0.0000000   0.6666667   0.0000000), wk =   0.0069444
        k(   36) = (  -0.0833333   0.7500000  -0.0833333), wk =   0.0277778
        k(   37) = (   0.8333333  -0.1666667   0.8333333), wk =   0.0277778
        k(   38) = (   0.7500000  -0.0833333   0.7500000), wk =   0.0277778
        k(   39) = (   0.6666667  -0.0000000   0.6666667), wk =   0.0138889
        k(   40) = (   0.0000000   0.8333333   0.0000000), wk =   0.0069444
        k(   41) = (   0.9166667  -0.0833333   0.9166667), wk =   0.0277778
        k(   42) = (   0.8333333   0.0000000   0.8333333), wk =   0.0138889
        k(   43) = (   0.0000000  -1.0000000   0.0000000), wk =   0.0034722
        k(   44) = (  -0.1666667   0.3333333   0.0000000), wk =   0.0277778
        k(   45) = (  -0.2500000   0.4166667  -0.0833333), wk =   0.0555556
        k(   46) = (  -0.3333333   0.5000000  -0.1666667), wk =   0.0555556
        k(   47) = (   0.5833333  -0.4166667   0.7500000), wk =   0.0555556
        k(   48) = (   0.5000000  -0.3333333   0.6666667), wk =   0.0277778
        k(   49) = (  -0.1666667   0.5000000   0.0000000), wk =   0.0277778
        k(   50) = (  -0.2500000   0.5833333  -0.0833333), wk =   0.0555556
        k(   51) = (   0.6666667  -0.3333333   0.8333333), wk =   0.0555556
        k(   52) = (   0.5833333  -0.2500000   0.7500000), wk =   0.0555556
        k(   53) = (   0.5000000  -0.1666667   0.6666667), wk =   0.0555556
        k(   54) = (   0.4166667  -0.0833333   0.5833333), wk =   0.0555556
        k(   55) = (   0.3333333   0.0000000   0.5000000), wk =   0.0277778
        k(   56) = (  -0.1666667   0.6666667  -0.0000000), wk =   0.0277778
        k(   57) = (   0.7500000  -0.2500000   0.9166667), wk =   0.0555556
        k(   58) = (   0.6666667  -0.1666667   0.8333333), wk =   0.0555556
        k(   59) = (   0.5833333  -0.0833333   0.7500000), wk =   0.0555556
        k(   60) = (   0.5000000   0.0000000   0.6666667), wk =   0.0277778
        k(   61) = (   0.8333333  -0.1666667   1.0000000), wk =   0.0277778
        k(   62) = (   0.7500000  -0.0833333   0.9166667), wk =   0.0555556
        k(   63) = (   0.6666667   0.0000000   0.8333333), wk =   0.0277778
        k(   64) = (  -0.1666667  -1.0000000  -0.0000000), wk =   0.0138889
        k(   65) = (   0.6666667  -0.3333333   1.0000000), wk =   0.0277778
        k(   66) = (   0.5833333  -0.2500000   0.9166667), wk =   0.0555556
        k(   67) = (   0.5000000  -0.1666667   0.8333333), wk =   0.0277778
        k(   68) = (   0.6666667  -0.1666667   1.0000000), wk =   0.0277778
        k(   69) = (   0.5833333  -0.0833333   0.9166667), wk =   0.0555556
        k(   70) = (   0.5000000   0.0000000   0.8333333), wk =   0.0277778
        k(   71) = (  -0.3333333  -1.0000000   0.0000000), wk =   0.0138889
        k(   72) = (  -0.5000000  -1.0000000   0.0000000), wk =   0.0069444

     Dense  grid:    16865 G-vectors     FFT dimensions: (  36,  36,  36)

     Estimated max dynamical RAM per process >      46.29 MB

     Initial potential from superposition of free atoms

     starting charge      25.9670, renormalised to      26.0000
     Starting wfcs are random

     total cpu time spent up to now is        1.0 secs

     Self-consistent Calculation

     iteration #  1     ecut=    60.00 Ry     beta= 0.70
     Davidson diagonalization with overlap
     ethr =  1.00E-02,  avg # of iterations = 12.9

     Threshold (ethr) on eigenvalues was too large:
     Diagonalizing with lowered threshold

     Davidson diagonalization with overlap
     ethr =  9.60E-04,  avg # of iterations =  1.9

     total cpu time spent up to now is       12.3 secs

     total energy              =    -420.82200258 Ry
     estimated scf accuracy    <       0.12916564 Ry

     iteration #  2     ecut=    60.00 Ry     beta= 0.70
     Davidson diagonalization with overlap
     ethr =  4.97E-04,  avg # of iterations =  2.2

     total cpu time spent up to now is       15.1 secs

     total energy              =    -420.88735774 Ry
     estimated scf accuracy    <       0.07493033 Ry

     iteration #  3     ecut=    60.00 Ry     beta= 0.70
     Davidson diagonalization with overlap
     ethr =  2.88E-04,  avg # of iterations =  2.0

     total cpu time spent up to now is       17.8 secs

     total energy              =    -420.89947865 Ry
     estimated scf accuracy    <       0.00122661 Ry

     iteration #  4     ecut=    60.00 Ry     beta= 0.70
     Davidson diagonalization with overlap
     ethr =  4.72E-06,  avg # of iterations =  3.0

     total cpu time spent up to now is       21.1 secs

     total energy              =    -420.89989704 Ry
     estimated scf accuracy    <       0.00054989 Ry

     iteration #  5     ecut=    60.00 Ry     beta= 0.70
     Davidson diagonalization with overlap
     ethr =  2.11E-06,  avg # of iterations =  2.0

     total cpu time spent up to now is       24.1 secs

     total energy              =    -420.90009407 Ry
     estimated scf accuracy    <       0.00014918 Ry

     iteration #  6     ecut=    60.00 Ry     beta= 0.70
     Davidson diagonalization with overlap
     ethr =  5.74E-07,  avg # of iterations =  2.0

     total cpu time spent up to now is       26.6 secs

     total energy              =    -420.90010928 Ry
     estimated scf accuracy    <       0.00000573 Ry

     iteration #  7     ecut=    60.00 Ry     beta= 0.70
     Davidson diagonalization with overlap
     ethr =  2.20E-08,  avg # of iterations =  3.0

     total cpu time spent up to now is       30.0 secs

     total energy              =    -420.90011260 Ry
     estimated scf accuracy    <       0.00000468 Ry

     iteration #  8     ecut=    60.00 Ry     beta= 0.70
     Davidson diagonalization with overlap
     ethr =  1.80E-08,  avg # of iterations =  2.0

     total cpu time spent up to now is       32.6 secs

     total energy              =    -420.90011305 Ry
     estimated scf accuracy    <       0.00000029 Ry

     iteration #  9     ecut=    60.00 Ry     beta= 0.70
     Davidson diagonalization with overlap
     ethr =  1.12E-09,  avg # of iterations =  2.0

     total cpu time spent up to now is       35.4 secs

     End of self-consistent calculation

          k = 0.0000 0.0000 0.0000 (  2085 PWs)   bands (ev):

  -117.5274 -71.6830 -71.6830 -71.6830  -5.6963   1.0729   1.0729   1.0729
     1.5586   1.5586   7.3808   7.3808   7.3808

          k =-0.0833 0.0833-0.0833 (  2097 PWs)   bands (ev):

  -117.5274 -71.6831 -71.6831 -71.6831  -5.6444   1.0730   1.0824   1.0824
     1.5571   1.5571   6.7953   7.3134   7.3134

          k =-0.1667 0.1667-0.1667 (  2112 PWs)   bands (ev):

  -117.5274 -71.6831 -71.6831 -71.6831  -5.4971   1.0821   1.1072   1.1072
     1.5557   1.5557   5.7088   7.1392   7.1392

          k =-0.2500 0.2500-0.2500 (  2100 PWs)   bands (ev):

  -117.5274 -71.6831 -71.6831 -71.6831  -5.2815   1.1252   1.1389   1.1389
     1.5596   1.5596   4.5713   6.9207   6.9207

          k =-0.3333 0.3333-0.3333 (  2102 PWs)   bands (ev):

  -117.5274 -71.6832 -71.6831 -71.6831  -5.0461   1.1656   1.1656   1.2414
     1.5699   1.5699   3.5240   6.7187   6.7187

          k =-0.4167 0.4167-0.4167 (  2093 PWs)   bands (ev):

  -117.5274 -71.6832 -71.6831 -71.6831  -4.8583   1.1812   1.1812   1.4799
     1.5829   1.5829   2.6572   6.5790   6.5790

          k = 0.5000-0.5000 0.5000 (  2120 PWs)   bands (ev):

  -117.5274 -71.6832 -71.6831 -71.6831  -4.7857   1.1856   1.1856   1.5878
     1.5878   1.7583   2.1530   6.5291   6.5291

          k = 0.0000 0.1667 0.0000 (  2093 PWs)   bands (ev):

  -117.5274 -71.6831 -71.6831 -71.6831  -5.6270   1.0642   1.0903   1.0903
     1.5508   1.5632   6.8003   7.1911   7.1911

          k =-0.0833 0.2500-0.0833 (  2098 PWs)   bands (ev):

  -117.5274 -71.6831 -71.6831 -71.6831  -5.5114   1.0630   1.1133   1.1149
     1.5438   1.5674   5.9821   6.9769   7.0618

          k =-0.1667 0.3333-0.1667 (  2095 PWs)   bands (ev):

  -117.5274 -71.6831 -71.6831 -71.6831  -5.3181   1.0861   1.1476   1.1477
     1.5430   1.5724   4.9181   6.7414   6.8623

          k =-0.2500 0.4167-0.2500 (  2105 PWs)   bands (ev):

  -117.5274 -71.6832 -71.6831 -71.6831  -5.0878   1.1402   1.1762   1.2092
     1.5535   1.5807   3.8710   6.5459   6.6131

          k =-0.3333 0.5000-0.3333 (  2104 PWs)   bands (ev):

  -117.5274 -71.6832 -71.6831 -71.6831  -4.8814   1.1733   1.1942   1.3802
     1.5819   1.5889   2.9585   6.3829   6.4331

          k = 0.5833-0.4167 0.5833 (  2102 PWs)   bands (ev):

  -117.5274 -71.6832 -71.6831 -71.6831  -4.7679   1.1856   1.2001   1.5496
     1.5896   1.7312   2.2996   6.2224   6.4241

          k = 0.5000-0.3333 0.5000 (  2100 PWs)   bands (ev):

  -117.5274 -71.6832 -71.6831 -71.6831  -4.7921   1.1871   1.1955   1.5353
     1.5781   1.6499   2.4770   6.1627   6.5200

          k = 0.4167-0.2500 0.4167 (  2102 PWs)   bands (ev):

  -117.5274 -71.6832 -71.6831 -71.6831  -4.9441   1.1784   1.1798   1.3108
     1.5611   1.5919   3.2431   6.2179   6.7013

          k = 0.3333-0.1667 0.3333 (  2098 PWs)   bands (ev):

  -117.5274 -71.6831 -71.6831 -71.6831  -5.1663   1.1444   1.1534   1.1740
     1.5481   1.5779   4.2080   6.3850   6.9301

          k = 0.2500-0.0833 0.2500 (  2095 PWs)   bands (ev):

  -117.5274 -71.6831 -71.6831 -71.6831  -5.3900   1.0886   1.1210   1.1366
     1.5452   1.5684   5.2585   6.6482   7.1505

          k = 0.1667-0.0000 0.1667 (  2099 PWs)   bands (ev):

  -117.5274 -71.6831 -71.6831 -71.6831  -5.5606   1.0721   1.0943   1.1047
     1.5499   1.5622   6.2199   6.9905   7.2970

          k = 0.0000 0.3333 0.0000 (  2097 PWs)   bands (ev):

  -117.5274 -71.6831 -71.6831 -71.6831  -5.4305   1.0446   1.1404   1.1404
     1.5329   1.5763   5.8105   6.7240   6.7240

          k =-0.0833 0.4167-0.0833 (  2095 PWs)   bands (ev):

  -117.5274 -71.6831 -71.6831 -71.6831  -5.2688   1.0484   1.1763   1.1775
     1.5282   1.5842   5.0844   6.4606   6.4806

          k =-0.1667 0.5000-0.1667 (  2096 PWs)   bands (ev):

  -117.5274 -71.6831 -71.6831 -71.6831  -5.0594   1.0900   1.2100   1.2254
     1.5411   1.5922   4.1811   6.1819   6.2523

          k =-0.2500 0.5833-0.2500 (  2109 PWs)   bands (ev):

  -117.5274 -71.6832 -71.6831 -71.6831  -4.8545   1.1504   1.2315   1.3208
     1.5867   1.5968   3.3118   5.8573   6.1425

          k = 0.6667-0.3333 0.6667 (  2108 PWs)   bands (ev):

  -117.5274 -71.6832 -71.6831 -71.6831  -4.7175   1.1804   1.2389   1.4676
     1.5932   1.7172   2.6162   5.5846   6.1529

          k = 0.5833-0.2500 0.5833 (  2109 PWs)   bands (ev):

  -117.5274 -71.6832 -71.6831 -71.6831  -4.6985   1.1902   1.2334   1.5224
     1.5775   1.7667   2.4725   5.4185   6.2813

          k = 0.5000-0.1667 0.5000 (  2110 PWs)   bands (ev):

  -117.5274 -71.6832 -71.6831 -71.6831  -4.8050   1.1911   1.2154   1.4056
     1.5561   1.6232   3.0597   5.3997   6.5014

          k = 0.4167-0.0833 0.4167 (  2102 PWs)   bands (ev):

  -117.5274 -71.6832 -71.6831 -71.6831  -4.9963   1.1802   1.1856   1.2280
     1.5417   1.5979   3.8620   5.5711   6.7658

          k = 0.3333 0.0000 0.3333 (  2109 PWs)   bands (ev):

  -117.5274 -71.6831 -71.6831 -71.6831  -5.2102   1.1224   1.1501   1.1676
     1.5379   1.5816   4.6493   5.9972   7.0072

          k = 0.0000 0.5000 0.0000 (  2085 PWs)   bands (ev):

  -117.5274 -71.6831 -71.6831 -71.6831  -5.1427   1.0301   1.2174   1.2174
     1.5213   1.5952   4.8246   6.1669   6.1669

          k =-0.0833 0.5833-0.0833 (  2097 PWs)   bands (ev):

  -117.5274 -71.6832 -71.6831 -71.6831  -4.9660   1.0474   1.2574   1.2618
     1.5357   1.6029   4.2323   5.8486   5.9320

          k =-0.1667 0.6667-0.1667 (  2109 PWs)   bands (ev):

  -117.5274 -71.6832 -71.6831 -71.6831  -4.7819   1.1036   1.2847   1.3176
     1.5941   1.6063   3.5560   5.4292   5.8054

          k = 0.7500-0.2500 0.7500 (  2113 PWs)   bands (ev):

  -117.5274 -71.6832 -71.6831 -71.6831  -4.6442   1.1580   1.2945   1.4072
     1.6006   1.7235   2.9471   5.0193   5.8125

          k = 0.6667-0.1667 0.6667 (  2111 PWs)   bands (ev):

  -117.5274 -71.6832 -71.6831 -71.6831  -4.5992   1.1829   1.2873   1.4907
     1.5823   1.8394   2.6468   4.7299   5.9522

          k = 0.5833-0.0833 0.5833 (  2113 PWs)   bands (ev):

  -117.5274 -71.6832 -71.6831 -71.6831  -4.6628   1.1932   1.2636   1.4971
     1.5596   1.6932   2.9545   4.6507   6.1963

          k = 0.5000 0.0000 0.5000 (  2099 PWs)   bands (ev):

  -117.5274 -71.6832 -71.6831 -71.6831  -4.8113   1.1951   1.2269   1.3552
     1.5450   1.6195   3.4599   4.9097   6.4926

          k = 0.0000 0.6667 0.0000 (  2092 PWs)   bands (ev):

  -117.5274 -71.6832 -71.6831 -71.6831  -4.8279   1.0341   1.3053   1.3053
     1.5513   1.6130   3.9239   5.6656   5.6656

          k =-0.0833 0.7500-0.0833 (  2112 PWs)   bands (ev):

  -117.5274 -71.6832 -71.6831 -71.6831  -4.6801   1.0609   1.3389   1.3461
     1.6132   1.6171   3.4777   5.3359   5.5097

          k = 0.8333-0.1667 0.8333 (  2126 PWs)   bands (ev):

  -117.5274 -71.6832 -71.6831 -71.6831  -4.5651   1.1138   1.3518   1.3915
     1.6113   1.7402   3.0668   4.8458   5.4963

          k = 0.7500-0.0833 0.7500 (  2119 PWs)   bands (ev):

  -117.5274 -71.6832 -71.6831 -71.6831  -4.5193   1.1580   1.3421   1.4518
     1.5940   1.8754   2.8147   4.4117   5.6286

          k = 0.6667-0.0000 0.6667 (  2121 PWs)   bands (ev):

  -117.5274 -71.6832 -71.6832 -71.6831  -4.5565   1.1821   1.3101   1.5023
     1.5730   1.8360   2.8438   4.2799   5.8796

          k = 0.0000 0.8333 0.0000 (  2112 PWs)   bands (ev):

  -117.5274 -71.6832 -71.6831 -71.6831  -4.5766   1.0480   1.3788   1.3788
     1.6261   1.6653   3.1924   5.3200   5.3200

          k = 0.9167-0.0833 0.9167 (  2109 PWs)   bands (ev):

  -117.5274 -71.6832 -71.6831 -71.6831  -4.5031   1.0717   1.3942   1.4014
     1.6244   1.7626   2.9430   5.0507   5.2757

          k = 0.8333 0.0000 0.8333 (  2111 PWs)   bands (ev):

  -117.5274 -71.6832 -71.6831 -71.6831  -4.4825   1.1165   1.3813   1.4215
     1.6113   1.8559   2.8412   4.6240   5.3861

          k = 0.0000-1.0000 0.0000 (  2100 PWs)   bands (ev):

  -117.5274 -71.6832 -71.6831 -71.6831  -4.4795   1.0548   1.4090   1.4090
     1.6306   1.7747   2.8593   5.1965   5.1965

          k =-0.1667 0.3333 0.0000 (  2091 PWs)   bands (ev):

  -117.5274 -71.6831 -71.6831 -71.6831  -5.3726   1.0655   1.1405   1.1476
     1.5370   1.5750   5.3647   6.5061   6.9650

          k =-0.2500 0.4167-0.0833 (  2098 PWs)   bands (ev):

  -117.5274 -71.6831 -71.6831 -71.6831  -5.1705   1.1006   1.1754   1.1859
     1.5378   1.5848   4.4972   6.1027   6.7790

          k =-0.3333 0.5000-0.1667 (  2108 PWs)   bands (ev):

  -117.5274 -71.6832 -71.6831 -71.6831  -4.9516   1.1591   1.2003   1.2702
     1.5544   1.5969   3.5806   5.8510   6.5415

          k = 0.5833-0.4167 0.7500 (  2108 PWs)   bands (ev):

  -117.5274 -71.6832 -71.6831 -71.6831  -4.7786   1.1858   1.2159   1.4471
     1.5811   1.6411   2.7844   5.7239   6.3442

          k = 0.5000-0.3333 0.6667 (  2100 PWs)   bands (ev):

  -117.5274 -71.6832 -71.6831 -71.6831  -4.7121   1.1914   1.2220   1.5294
     1.5828   1.7974   2.3522   5.6884   6.2662

          k =-0.1667 0.5000 0.0000 (  2095 PWs)   bands (ev):

  -117.5274 -71.6831 -71.6831 -71.6831  -5.0989   1.0614   1.2101   1.2228
     1.5304   1.5939   4.5307   5.9423   6.3597

          k =-0.2500 0.5833-0.0833 (  2103 PWs)   bands (ev):

  -117.5274 -71.6832 -71.6831 -71.6831  -4.9008   1.1141   1.2359   1.2836
     1.5565   1.6030   3.8274   5.5349   6.1458

          k = 0.6667-0.3333 0.8333 (  2109 PWs)   bands (ev):

  -117.5274 -71.6832 -71.6831 -71.6831  -4.7282   1.1701   1.2547   1.3854
     1.5908   1.6502   3.1184   5.2543   5.9654

          k = 0.5833-0.2500 0.7500 (  2109 PWs)   bands (ev):

  -117.5274 -71.6832 -71.6831 -71.6831  -4.6369   1.1920   1.2621   1.4881
     1.5801   1.8058   2.6115   5.0605   5.9351

          k = 0.5000-0.1667 0.6667 (  2110 PWs)   bands (ev):

  -117.5274 -71.6832 -71.6831 -71.6831  -4.6602   1.1989   1.2508   1.4951
     1.5697   1.7397   2.7429   4.9727   6.0692

          k = 0.4167-0.0833 0.5833 (  2105 PWs)   bands (ev):

  -117.5274 -71.6832 -71.6831 -71.6831  -4.7891   1.1973   1.2198   1.3679
     1.5597   1.6240   3.3392   5.0638   6.3125

          k = 0.3333 0.0000 0.5000 (  2102 PWs)   bands (ev):

  -117.5274 -71.6832 -71.6831 -71.6831  -4.9782   1.1513   1.1980   1.2466
     1.5415   1.5999   3.9818   5.4362   6.5827

          k =-0.1667 0.6667-0.0000 (  2108 PWs)   bands (ev):

  -117.5274 -71.6832 -71.6831 -71.6831  -4.8023   1.0726   1.2856   1.3165
     1.5708   1.6104   3.7734   5.4514   5.7388

          k = 0.7500-0.2500 0.9167 (  2108 PWs)   bands (ev):

  -117.5274 -71.6832 -71.6831 -71.6831  -4.6514   1.1281   1.3050   1.3762
     1.6041   1.6686   3.2791   5.0402   5.5628

          k = 0.6667-0.1667 0.8333 (  2116 PWs)   bands (ev):

  -117.5274 -71.6832 -71.6831 -71.6831  -4.5593   1.1720   1.3147   1.4460
     1.5883   1.8191   2.8682   4.6547   5.5580

          k = 0.5833-0.0833 0.7500 (  2119 PWs)   bands (ev):

  -117.5274 -71.6832 -71.6831 -71.6831  -4.5564   1.1924   1.3011   1.5050
     1.5615   1.8517   2.7936   4.4306   5.7247

          k = 0.5000 0.0000 0.6667 (  2117 PWs)   bands (ev):

  -117.5274 -71.6832 -71.6831 -71.6831  -4.6428   1.2029   1.2634   1.4780
     1.5615   1.7014   3.0701   4.5318   6.0038

          k = 0.8333-0.1667 1.0000 (  2117 PWs)   bands (ev):

  -117.5274 -71.6832 -71.6831 -71.6831  -4.5680   1.0861   1.3569   1.3900
     1.6173   1.7041   3.1479   5.1342   5.2727

          k = 0.7500-0.0833 0.9167 (  2122 PWs)   bands (ev):

  -117.5274 -71.6832 -71.6831 -71.6831  -4.4999   1.1319   1.3629   1.4237
     1.6036   1.8345   2.9046   4.7180   5.2438

          k = 0.6667 0.0000 0.8333 (  2120 PWs)   bands (ev):

  -117.5274 -71.6832 -71.6831 -71.6831  -4.4964   1.1702   1.3455   1.4658
     1.5805   1.9080   2.8186   4.3619   5.4232

          k =-0.1667-1.0000-0.0000 (  2114 PWs)   bands (ev):

  -117.5274 -71.6832 -71.6831 -71.6831  -4.4780   1.0908   1.3902   1.4163
     1.6190   1.8193   2.8552   5.0591   5.0659

          k = 0.6667-0.3333 1.0000 (  2113 PWs)   bands (ev):

  -117.5274 -71.6832 -71.6831 -71.6831  -4.7335   1.1672   1.2497   1.3662
     1.5809   1.6340   3.4288   4.9831   5.8960

          k = 0.5833-0.2500 0.9167 (  2115 PWs)   bands (ev):

  -117.5274 -71.6832 -71.6831 -71.6831  -4.6049   1.2006   1.2743   1.4561
     1.5741   1.7524   2.9904   4.6909   5.6414

          k = 0.5000-0.1667 0.8333 (  2108 PWs)   bands (ev):

  -117.5274 -71.6832 -71.6831 -71.6831  -4.5564   1.2054   1.2902   1.5091
     1.5497   1.8673   2.7472   4.6146   5.5343

          k = 0.6667-0.1667 1.0000 (  2111 PWs)   bands (ev):

  -117.5274 -71.6832 -71.6831 -71.6831  -4.5458   1.1693   1.3198   1.4330
     1.5881   1.7907   3.0213   4.7442   5.2295

          k = 0.5833-0.0833 0.9167 (  2128 PWs)   bands (ev):

  -117.5274 -71.6832 -71.6831 -71.6831  -4.4967   1.1953   1.3328   1.4816
     1.5545   1.9087   2.8482   4.5098   5.1118

          k = 0.5000 0.0000 0.8333 (  2125 PWs)   bands (ev):

  -117.5274 -71.6832 -71.6832 -71.6831  -4.5190   1.2061   1.3126   1.5096
     1.5357   1.8801   2.8744   4.4235   5.3016

          k =-0.3333-1.0000 0.0000 (  2126 PWs)   bands (ev):

  -117.5274 -71.6832 -71.6831 -71.6831  -4.4752   1.1666   1.3609   1.4470
     1.5803   1.9062   2.8461   4.8031   4.8204

          k =-0.5000-1.0000 0.0000 (  2148 PWs)   bands (ev):

  -117.5274 -71.6832 -71.6832 -71.6831  -4.4737   1.2040   1.3481   1.5027
     1.5219   1.9490   2.8405   4.6816   4.7035

     highest occupied level (ev):     7.3808

!    total energy              =    -420.90011313 Ry
     estimated scf accuracy    <          1.5E-09 Ry

     The total energy is the sum of the following terms:
     one-electron contribution =    -338.97431756 Ry
     hartree contribution      =     173.03338368 Ry
     xc contribution           =     -40.99734270 Ry
     ewald contribution        =    -213.96183656 Ry

     convergence has been achieved in   9 iterations

     Writing all to output data dir ./SCRATCH/zns.save/

     init_run     :      0.86s CPU      0.97s WALL (       1 calls)
     electrons    :     33.97s CPU     34.37s WALL (       1 calls)

     Called by init_run:
     wfcinit      :      0.80s CPU      0.89s WALL (       1 calls)
     potinit      :      0.02s CPU      0.03s WALL (       1 calls)
     hinit0       :      0.02s CPU      0.03s WALL (       1 calls)

     Called by electrons:
     c_bands      :     30.56s CPU     31.00s WALL (      10 calls)
     sum_band     :      3.27s CPU      3.23s WALL (      10 calls)
     v_of_rho     :      0.16s CPU      0.14s WALL (      10 calls)
     mix_rho      :      0.00s CPU      0.02s WALL (      10 calls)

     Called by c_bands:
     init_us_2    :      0.62s CPU      0.64s WALL (    1512 calls)
     init_us_2:cp :      0.62s CPU      0.64s WALL (    1512 calls)
     cegterg      :     29.45s CPU     29.89s WALL (     720 calls)

     Called by *egterg:
     cdiaghg      :      0.31s CPU      0.39s WALL (    3029 calls)
     h_psi        :     23.75s CPU     24.09s WALL (    3173 calls)
     g_psi        :      0.09s CPU      0.14s WALL (    2381 calls)

     Called by h_psi:
     h_psi:calbec :      1.55s CPU      1.88s WALL (    3173 calls)
     vloc_psi     :     20.56s CPU     20.71s WALL (    3173 calls)
     add_vuspsi   :      1.50s CPU      1.37s WALL (    3173 calls)

     General routines
     calbec       :      1.55s CPU      1.87s WALL (    3173 calls)
     fft          :      0.03s CPU      0.04s WALL (     100 calls)
     ffts         :      0.02s CPU      0.00s WALL (      10 calls)
     fftw         :     21.42s CPU     21.07s WALL (   75872 calls)


     PWSCF        :     34.84s CPU     35.40s WALL


   This run was terminated on:  10:23:23   8Jun2024            

=------------------------------------------------------------------------------=
   JOB DONE.
=------------------------------------------------------------------------------=
