
     Program PWSCF v.7.2 starts on 26May2024 at 11:14:55 

     This program is part of the open-source Quantum ESPRESSO suite
     for quantum simulation of materials; please cite
         "P. Giannozzi et al., J. Phys.:Condens. Matter 21 395502 (2009);
         "P. Giannozzi et al., J. Phys.:Condens. Matter 29 465901 (2017);
         "P. Giannozzi et al., J. Chem. Phys. 152 154105 (2020);
          URL http://www.quantum-espresso.org", 
     in publications or presentations arising from this work. More details at
     http://www.quantum-espresso.org/quote

     Serial version
     9872 MiB available memory on the printing compute node when the environment starts

     Waiting for input...
     Reading input from standard input

     Current dimensions of program PWSCF are:
     Max number of different atomic species (ntypx) = 10
     Max number of k-points (npk) =  40000
     Max angular momentum in pseudopotentials (lmaxx) =  4


     G-vector sticks info
     --------------------
     sticks:   dense  smooth     PW     G-vecs:    dense   smooth      PW
     Sum         859     859    253                16865    16865    2741

     Using Slab Decomposition



     bravais-lattice index     =            2
     lattice parameter (alat)  =      10.2423  a.u.
     unit-cell volume          =     268.6175 (a.u.)^3
     number of atoms/cell      =            2
     number of atomic types    =            2
     number of electrons       =         8.00
     number of Kohn-Sham states=            4
     kinetic-energy cutoff     =      60.0000  Ry
     charge density cutoff     =     240.0000  Ry
     scf convergence threshold =      1.0E-08
     mixing beta               =       0.7000
     number of iterations used =            8  plain     mixing
     Exchange-correlation= SLA-PZ-NOGX-NOGC
                           (   1   1   0   0   0   0   0)

     celldm(1)=  10.242315  celldm(2)=   0.000000  celldm(3)=   0.000000
     celldm(4)=   0.000000  celldm(5)=   0.000000  celldm(6)=   0.000000

     crystal axes: (cart. coord. in units of alat)
               a(1) = (  -0.500000   0.000000   0.500000 )  
               a(2) = (   0.000000   0.500000   0.500000 )  
               a(3) = (  -0.500000   0.500000   0.000000 )  

     reciprocal axes: (cart. coord. in units 2 pi/alat)
               b(1) = ( -1.000000 -1.000000  1.000000 )  
               b(2) = (  1.000000  1.000000  1.000000 )  
               b(3) = ( -1.000000  1.000000 -1.000000 )  


     PseudoPot. # 1 for Zn read from file:
     /home/paolo/project_labqsm/pseudopotentials/Zn.pz-hgh.UPF
     MD5 check sum: c1979979258da2eeca1fc2dcb474678d
     Pseudo is Norm-conserving, Zval =  2.0
     Generated in analytical, separable form
     Using radial grid of 1201 points,  6 beta functions with: 
                l(1) =   0
                l(2) =   0
                l(3) =   0
                l(4) =   1
                l(5) =   1
                l(6) =   2

     PseudoPot. # 2 for S  read from file:
     /home/paolo/project_labqsm/pseudopotentials/S.pz-hgh.UPF
     MD5 check sum: a0679cb0a74c01c481c24d5fd31ffa9b
     Pseudo is Norm-conserving, Zval =  6.0
     Generated in analytical, separable form
     Using radial grid of 1151 points,  3 beta functions with: 
                l(1) =   0
                l(2) =   0
                l(3) =   1

     atomic species   valence    mass     pseudopotential
        Zn             2.00    65.38000     Zn( 1.00)
        S              6.00    32.06000     S ( 1.00)

     24 Sym. Ops. (no inversion) found



   Cartesian axes

     site n.     atom                  positions (alat units)
         1           Zn  tau(   1) = (   0.0000000   0.0000000   0.0000000  )
         2           S   tau(   2) = (   0.2500000   0.2500000   0.2500000  )

     number of k points=    29
                       cart. coord. in units 2pi/alat
        k(    1) = (   0.0000000   0.0000000   0.0000000), wk =   0.0039062
        k(    2) = (  -0.1250000   0.1250000  -0.1250000), wk =   0.0312500
        k(    3) = (  -0.2500000   0.2500000  -0.2500000), wk =   0.0312500
        k(    4) = (  -0.3750000   0.3750000  -0.3750000), wk =   0.0312500
        k(    5) = (   0.5000000  -0.5000000   0.5000000), wk =   0.0156250
        k(    6) = (   0.0000000   0.2500000   0.0000000), wk =   0.0234375
        k(    7) = (  -0.1250000   0.3750000  -0.1250000), wk =   0.0937500
        k(    8) = (  -0.2500000   0.5000000  -0.2500000), wk =   0.0937500
        k(    9) = (   0.6250000  -0.3750000   0.6250000), wk =   0.0937500
        k(   10) = (   0.5000000  -0.2500000   0.5000000), wk =   0.0937500
        k(   11) = (   0.3750000  -0.1250000   0.3750000), wk =   0.0937500
        k(   12) = (   0.2500000   0.0000000   0.2500000), wk =   0.0468750
        k(   13) = (   0.0000000   0.5000000   0.0000000), wk =   0.0234375
        k(   14) = (  -0.1250000   0.6250000  -0.1250000), wk =   0.0937500
        k(   15) = (   0.7500000  -0.2500000   0.7500000), wk =   0.0937500
        k(   16) = (   0.6250000  -0.1250000   0.6250000), wk =   0.0937500
        k(   17) = (   0.5000000   0.0000000   0.5000000), wk =   0.0468750
        k(   18) = (   0.0000000   0.7500000   0.0000000), wk =   0.0234375
        k(   19) = (   0.8750000  -0.1250000   0.8750000), wk =   0.0937500
        k(   20) = (   0.7500000   0.0000000   0.7500000), wk =   0.0468750
        k(   21) = (   0.0000000  -1.0000000   0.0000000), wk =   0.0117188
        k(   22) = (  -0.2500000   0.5000000   0.0000000), wk =   0.0937500
        k(   23) = (   0.6250000  -0.3750000   0.8750000), wk =   0.1875000
        k(   24) = (   0.5000000  -0.2500000   0.7500000), wk =   0.0937500
        k(   25) = (   0.7500000  -0.2500000   1.0000000), wk =   0.0937500
        k(   26) = (   0.6250000  -0.1250000   0.8750000), wk =   0.1875000
        k(   27) = (   0.5000000   0.0000000   0.7500000), wk =   0.0937500
        k(   28) = (  -0.2500000  -1.0000000   0.0000000), wk =   0.0468750
        k(   29) = (  -0.5000000  -1.0000000   0.0000000), wk =   0.0234375

     Dense  grid:    16865 G-vectors     FFT dimensions: (  36,  36,  36)

     Estimated max dynamical RAM per process >      18.86 MB

     Initial potential from superposition of free atoms

     starting charge       6.0000, renormalised to       8.0000
     Starting wfcs are   18 randomized atomic wfcs

     total cpu time spent up to now is        0.7 secs

     Self-consistent Calculation

     iteration #  1     ecut=    60.00 Ry     beta= 0.70
     Davidson diagonalization with overlap
     ethr =  1.00E-02,  avg # of iterations =  2.0

     total cpu time spent up to now is        1.0 secs

     total energy              =     -22.66958697 Ry
     estimated scf accuracy    <       0.64758120 Ry

     iteration #  2     ecut=    60.00 Ry     beta= 0.70
     Davidson diagonalization with overlap
     ethr =  8.09E-03,  avg # of iterations =  2.0

     total cpu time spent up to now is        1.3 secs

     total energy              =     -22.87417996 Ry
     estimated scf accuracy    <       0.12421193 Ry

     iteration #  3     ecut=    60.00 Ry     beta= 0.70
     Davidson diagonalization with overlap
     ethr =  1.55E-03,  avg # of iterations =  2.0

     negative rho (up, down):  6.532E-08 0.000E+00

     total cpu time spent up to now is        1.7 secs

     total energy              =     -22.88768230 Ry
     estimated scf accuracy    <       0.00371077 Ry

     iteration #  4     ecut=    60.00 Ry     beta= 0.70
     Davidson diagonalization with overlap
     ethr =  4.64E-05,  avg # of iterations =  2.3

     total cpu time spent up to now is        2.0 secs

     total energy              =     -22.88912798 Ry
     estimated scf accuracy    <       0.00235573 Ry

     iteration #  5     ecut=    60.00 Ry     beta= 0.70
     Davidson diagonalization with overlap
     ethr =  2.94E-05,  avg # of iterations =  1.3

     total cpu time spent up to now is        2.3 secs

     total energy              =     -22.88922604 Ry
     estimated scf accuracy    <       0.00021851 Ry

     iteration #  6     ecut=    60.00 Ry     beta= 0.70
     Davidson diagonalization with overlap
     ethr =  2.73E-06,  avg # of iterations =  2.6

     total cpu time spent up to now is        2.7 secs

     total energy              =     -22.88930198 Ry
     estimated scf accuracy    <       0.00000024 Ry

     iteration #  7     ecut=    60.00 Ry     beta= 0.70
     Davidson diagonalization with overlap
     ethr =  3.05E-09,  avg # of iterations =  6.7

     total cpu time spent up to now is        3.3 secs

     total energy              =     -22.88930400 Ry
     estimated scf accuracy    <       0.00000070 Ry

     iteration #  8     ecut=    60.00 Ry     beta= 0.70
     Davidson diagonalization with overlap
     ethr =  3.05E-09,  avg # of iterations =  2.3

     total cpu time spent up to now is        3.6 secs

     End of self-consistent calculation

          k = 0.0000 0.0000 0.0000 (  2085 PWs)   bands (ev):

   -10.0699   2.3665   2.3665   2.3665

          k =-0.1250 0.1250-0.1250 (  2094 PWs)   bands (ev):

    -9.9454   1.2522   2.2475   2.2475

          k =-0.2500 0.2500-0.2500 (  2100 PWs)   bands (ev):

    -9.6066  -0.4862   1.9906   1.9906

          k =-0.3750 0.3750-0.3750 (  2102 PWs)   bands (ev):

    -9.1909  -1.8836   1.7665   1.7665

          k = 0.5000-0.5000 0.5000 (  2120 PWs)   bands (ev):

    -8.9847  -2.4374   1.6811   1.6811

          k = 0.0000 0.2500 0.0000 (  2097 PWs)   bands (ev):

    -9.9039   1.2664   2.0145   2.0145

          k =-0.1250 0.3750-0.1250 (  2102 PWs)   bands (ev):

    -9.6355  -0.0389   1.6977   1.7486

          k =-0.2500 0.5000-0.2500 (  2116 PWs)   bands (ev):

    -9.2359  -1.4407   1.3704   1.4872

          k = 0.6250-0.3750 0.6250 (  2104 PWs)   bands (ev):

    -8.9385  -2.2509   1.0479   1.4748

          k = 0.5000-0.2500 0.5000 (  2104 PWs)   bands (ev):

    -9.0083  -2.0706   0.9326   1.6594

          k = 0.3750-0.1250 0.3750 (  2102 PWs)   bands (ev):

    -9.3752  -1.0131   1.1017   1.9606

          k = 0.2500 0.0000 0.2500 (  2111 PWs)   bands (ev):

    -9.7484   0.3410   1.6151   2.2187

          k = 0.0000 0.5000 0.0000 (  2085 PWs)   bands (ev):

    -9.4520  -0.3293   1.3107   1.3107

          k =-0.1250 0.6250-0.1250 (  2099 PWs)   bands (ev):

    -9.1219  -1.2086   0.8158   1.0548

          k = 0.7500-0.2500 0.7500 (  2113 PWs)   bands (ev):

    -8.8173  -1.8818   0.1633   1.0378

          k = 0.6250-0.1250 0.6250 (  2116 PWs)   bands (ev):

    -8.7741  -1.9363  -0.2160   1.2633

          k = 0.5000 0.0000 0.5000 (  2099 PWs)   bands (ev):

    -9.0314  -1.4901   0.0556   1.6380

          k = 0.0000 0.7500 0.0000 (  2104 PWs)   bands (ev):

    -8.8954  -1.6058   0.7341   0.7341

          k = 0.8750-0.1250 0.8750 (  2113 PWs)   bands (ev):

    -8.6798  -1.9458   0.1933   0.6624

          k = 0.7500 0.0000 0.7500 (  2129 PWs)   bands (ev):

    -8.6269  -1.8832  -0.4991   0.8644

          k = 0.0000-1.0000 0.0000 (  2100 PWs)   bands (ev):

    -8.6169  -2.1277   0.5204   0.5204

          k =-0.2500 0.5000 0.0000 (  2105 PWs)   bands (ev):

    -9.3322  -0.8258   0.8549   1.6102

          k = 0.6250-0.3750 0.8750 (  2102 PWs)   bands (ev):

    -8.9705  -1.6886   0.3357   1.2975

          k = 0.5000-0.2500 0.7500 (  2100 PWs)   bands (ev):

    -8.7964  -2.0820   0.1969   1.1394

          k = 0.7500-0.2500 1.0000 (  2101 PWs)   bands (ev):

    -8.8377  -1.6640   0.2818   0.7230

          k = 0.6250-0.1250 0.8750 (  2121 PWs)   bands (ev):

    -8.6543  -1.8485  -0.2928   0.5848

          k = 0.5000 0.0000 0.7500 (  2125 PWs)   bands (ev):

    -8.7167  -1.7680  -0.4199   0.8650

          k =-0.2500-1.0000 0.0000 (  2120 PWs)   bands (ev):

    -8.6004  -1.9801   0.1305   0.2746

          k =-0.5000-1.0000 0.0000 (  2148 PWs)   bands (ev):

    -8.5837  -1.7801  -0.2797   0.0598

     highest occupied level (ev):     2.3665

!    total energy              =     -22.88930415 Ry
     estimated scf accuracy    <          9.6E-09 Ry

     The total energy is the sum of the following terms:
     one-electron contribution =      -1.15655947 Ry
     hartree contribution      =       3.49007064 Ry
     xc contribution           =      -5.43813293 Ry
     ewald contribution        =     -19.78468238 Ry

     convergence has been achieved in   8 iterations

     Writing all to output data dir ./SCRATCH/zns.save/

     init_run     :      0.62s CPU      0.65s WALL (       1 calls)
     electrons    :      2.83s CPU      2.95s WALL (       1 calls)

     Called by init_run:
     wfcinit      :      0.48s CPU      0.50s WALL (       1 calls)
     potinit      :      0.02s CPU      0.01s WALL (       1 calls)
     hinit0       :      0.11s CPU      0.12s WALL (       1 calls)

     Called by electrons:
     c_bands      :      2.42s CPU      2.52s WALL (       8 calls)
     sum_band     :      0.38s CPU      0.39s WALL (       8 calls)
     v_of_rho     :      0.03s CPU      0.02s WALL (       9 calls)
     mix_rho      :      0.00s CPU      0.02s WALL (       8 calls)

     Called by c_bands:
     init_us_2    :      0.14s CPU      0.19s WALL (     493 calls)
     init_us_2:cp :      0.14s CPU      0.19s WALL (     493 calls)
     cegterg      :      2.33s CPU      2.28s WALL (     232 calls)

     Called by *egterg:
     cdiaghg      :      0.00s CPU      0.02s WALL (     845 calls)
     h_psi        :      2.44s CPU      2.44s WALL (     874 calls)
     g_psi        :      0.02s CPU      0.01s WALL (     613 calls)

     Called by h_psi:
     h_psi:calbec :      0.17s CPU      0.15s WALL (     874 calls)
     vloc_psi     :      2.22s CPU      2.17s WALL (     874 calls)
     add_vuspsi   :      0.05s CPU      0.11s WALL (     874 calls)

     General routines
     calbec       :      0.17s CPU      0.14s WALL (     874 calls)
     fft          :      0.00s CPU      0.01s WALL (      26 calls)
     ffts         :      0.00s CPU      0.00s WALL (       8 calls)
     fftw         :      2.27s CPU      2.18s WALL (    7834 calls)


     PWSCF        :      3.50s CPU      3.65s WALL


   This run was terminated on:  11:14:59  26May2024            

=------------------------------------------------------------------------------=
   JOB DONE.
=------------------------------------------------------------------------------=
