
     Program PWSCF v.7.2 starts on  8Jun2024 at 10:44:32 

     This program is part of the open-source Quantum ESPRESSO suite
     for quantum simulation of materials; please cite
         "P. Giannozzi et al., J. Phys.:Condens. Matter 21 395502 (2009);
         "P. Giannozzi et al., J. Phys.:Condens. Matter 29 465901 (2017);
         "P. Giannozzi et al., J. Chem. Phys. 152 154105 (2020);
          URL http://www.quantum-espresso.org", 
     in publications or presentations arising from this work. More details at
     http://www.quantum-espresso.org/quote

     Serial version
     9078 MiB available memory on the printing compute node when the environment starts

     Waiting for input...
     Reading input from standard input

     Current dimensions of program PWSCF are:
     Max number of different atomic species (ntypx) = 10
     Max number of k-points (npk) =  40000
     Max angular momentum in pseudopotentials (lmaxx) =  4


     G-vector sticks info
     --------------------
     sticks:   dense  smooth     PW     G-vecs:    dense   smooth      PW
     Sum         955     955    295                19579    19579    3215

     Using Slab Decomposition



     bravais-lattice index     =            2
     lattice parameter (alat)  =      10.7544  a.u.
     unit-cell volume          =     310.9584 (a.u.)^3
     number of atoms/cell      =            2
     number of atomic types    =            2
     number of electrons       =        26.00
     number of Kohn-Sham states=           13
     kinetic-energy cutoff     =      60.0000  Ry
     charge density cutoff     =     240.0000  Ry
     scf convergence threshold =      1.0E-08
     mixing beta               =       0.7000
     number of iterations used =            8  plain     mixing
     energy convergence thresh.=      1.0E-05
     force convergence thresh. =      1.0E-04
     press convergence thresh. =      5.0E-01
     Exchange-correlation= PBE
                           (   1   4   3   4   0   0   0)
     nstep                     =           50


     celldm(1)=  10.754431  celldm(2)=   0.000000  celldm(3)=   0.000000
     celldm(4)=   0.000000  celldm(5)=   0.000000  celldm(6)=   0.000000

     crystal axes: (cart. coord. in units of alat)
               a(1) = (  -0.500000   0.000000   0.500000 )  
               a(2) = (   0.000000   0.500000   0.500000 )  
               a(3) = (  -0.500000   0.500000   0.000000 )  

     reciprocal axes: (cart. coord. in units 2 pi/alat)
               b(1) = ( -1.000000 -1.000000  1.000000 )  
               b(2) = (  1.000000  1.000000  1.000000 )  
               b(3) = ( -1.000000  1.000000 -1.000000 )  


     PseudoPot. # 1 for Zn read from file:
     /home/paolo/project_labqsm/pseudopotentials/Zn_ONCV_PBE-1.2.upf
     MD5 check sum: 732f41c0cd6489a4b50a33b4ec99a2d3
     Pseudo is Norm-conserving, Zval = 20.0
     Generated using ONCVPSP code by D. R. Hamann
     Using radial grid of  602 points,  6 beta functions with: 
                l(1) =   0
                l(2) =   0
                l(3) =   1
                l(4) =   1
                l(5) =   2
                l(6) =   2

     PseudoPot. # 2 for S  read from file:
     /home/paolo/project_labqsm/pseudopotentials/S_ONCV_PBE-1.2.upf
     MD5 check sum: f9d020296ee6110346977bfd66d424f6
     Pseudo is Norm-conserving, Zval =  6.0
     Generated using ONCVPSP code by D. R. Hamann
     Using radial grid of  602 points,  4 beta functions with: 
                l(1) =   0
                l(2) =   0
                l(3) =   1
                l(4) =   1

     atomic species   valence    mass     pseudopotential
        Zn            20.00    65.38000     Zn( 1.00)
        S              6.00    32.06000     S ( 1.00)

     24 Sym. Ops. (no inversion) found



   Cartesian axes

     site n.     atom                  positions (alat units)
         1           Zn  tau(   1) = (   0.0000000   0.0000000   0.0000000  )
         2           S   tau(   2) = (   0.2500000   0.2500000   0.2500000  )

     number of k points=    29
                       cart. coord. in units 2pi/alat
        k(    1) = (   0.0000000   0.0000000   0.0000000), wk =   0.0039062
        k(    2) = (  -0.1250000   0.1250000  -0.1250000), wk =   0.0312500
        k(    3) = (  -0.2500000   0.2500000  -0.2500000), wk =   0.0312500
        k(    4) = (  -0.3750000   0.3750000  -0.3750000), wk =   0.0312500
        k(    5) = (   0.5000000  -0.5000000   0.5000000), wk =   0.0156250
        k(    6) = (   0.0000000   0.2500000   0.0000000), wk =   0.0234375
        k(    7) = (  -0.1250000   0.3750000  -0.1250000), wk =   0.0937500
        k(    8) = (  -0.2500000   0.5000000  -0.2500000), wk =   0.0937500
        k(    9) = (   0.6250000  -0.3750000   0.6250000), wk =   0.0937500
        k(   10) = (   0.5000000  -0.2500000   0.5000000), wk =   0.0937500
        k(   11) = (   0.3750000  -0.1250000   0.3750000), wk =   0.0937500
        k(   12) = (   0.2500000   0.0000000   0.2500000), wk =   0.0468750
        k(   13) = (   0.0000000   0.5000000   0.0000000), wk =   0.0234375
        k(   14) = (  -0.1250000   0.6250000  -0.1250000), wk =   0.0937500
        k(   15) = (   0.7500000  -0.2500000   0.7500000), wk =   0.0937500
        k(   16) = (   0.6250000  -0.1250000   0.6250000), wk =   0.0937500
        k(   17) = (   0.5000000   0.0000000   0.5000000), wk =   0.0468750
        k(   18) = (   0.0000000   0.7500000   0.0000000), wk =   0.0234375
        k(   19) = (   0.8750000  -0.1250000   0.8750000), wk =   0.0937500
        k(   20) = (   0.7500000   0.0000000   0.7500000), wk =   0.0468750
        k(   21) = (   0.0000000  -1.0000000   0.0000000), wk =   0.0117188
        k(   22) = (  -0.2500000   0.5000000   0.0000000), wk =   0.0937500
        k(   23) = (   0.6250000  -0.3750000   0.8750000), wk =   0.1875000
        k(   24) = (   0.5000000  -0.2500000   0.7500000), wk =   0.0937500
        k(   25) = (   0.7500000  -0.2500000   1.0000000), wk =   0.0937500
        k(   26) = (   0.6250000  -0.1250000   0.8750000), wk =   0.1875000
        k(   27) = (   0.5000000   0.0000000   0.7500000), wk =   0.0937500
        k(   28) = (  -0.2500000  -1.0000000   0.0000000), wk =   0.0468750
        k(   29) = (  -0.5000000  -1.0000000   0.0000000), wk =   0.0234375

     Dense  grid:    19579 G-vectors     FFT dimensions: (  40,  40,  40)

     Estimated max dynamical RAM per process >      35.57 MB

     Initial potential from superposition of free atoms

     starting charge      25.9670, renormalised to      26.0000
     Starting wfcs are random

     total cpu time spent up to now is        1.1 secs

     Self-consistent Calculation

     iteration #  1     ecut=    60.00 Ry     beta= 0.70
     Davidson diagonalization with overlap
     ethr =  1.00E-02,  avg # of iterations = 13.2

     Threshold (ethr) on eigenvalues was too large:
     Diagonalizing with lowered threshold

     Davidson diagonalization with overlap
     ethr =  7.29E-04,  avg # of iterations =  2.4

     total cpu time spent up to now is        7.8 secs

     total energy              =    -420.83355376 Ry
     estimated scf accuracy    <       0.12758042 Ry

     iteration #  2     ecut=    60.00 Ry     beta= 0.70
     Davidson diagonalization with overlap
     ethr =  4.91E-04,  avg # of iterations =  2.2

     total cpu time spent up to now is        9.4 secs

     total energy              =    -420.87684484 Ry
     estimated scf accuracy    <       0.07442905 Ry

     iteration #  3     ecut=    60.00 Ry     beta= 0.70
     Davidson diagonalization with overlap
     ethr =  2.86E-04,  avg # of iterations =  2.0

     total cpu time spent up to now is       11.1 secs

     total energy              =    -420.88984498 Ry
     estimated scf accuracy    <       0.00086347 Ry

     iteration #  4     ecut=    60.00 Ry     beta= 0.70
     Davidson diagonalization with overlap
     ethr =  3.32E-06,  avg # of iterations =  3.4

     total cpu time spent up to now is       13.1 secs

     total energy              =    -420.89013854 Ry
     estimated scf accuracy    <       0.00047658 Ry

     iteration #  5     ecut=    60.00 Ry     beta= 0.70
     Davidson diagonalization with overlap
     ethr =  1.83E-06,  avg # of iterations =  2.0

     total cpu time spent up to now is       14.7 secs

     total energy              =    -420.89027033 Ry
     estimated scf accuracy    <       0.00002264 Ry

     iteration #  6     ecut=    60.00 Ry     beta= 0.70
     Davidson diagonalization with overlap
     ethr =  8.71E-08,  avg # of iterations =  2.0

     total cpu time spent up to now is       16.4 secs

     total energy              =    -420.89027585 Ry
     estimated scf accuracy    <       0.00000021 Ry

     iteration #  7     ecut=    60.00 Ry     beta= 0.70
     Davidson diagonalization with overlap
     ethr =  8.01E-10,  avg # of iterations =  3.8

     total cpu time spent up to now is       18.4 secs

     total energy              =    -420.89027571 Ry
     estimated scf accuracy    <       0.00000034 Ry

     iteration #  8     ecut=    60.00 Ry     beta= 0.70
     Davidson diagonalization with overlap
     ethr =  8.01E-10,  avg # of iterations =  3.0

     total cpu time spent up to now is       20.5 secs

     total energy              =    -420.89027583 Ry
     estimated scf accuracy    <       0.00000018 Ry

     iteration #  9     ecut=    60.00 Ry     beta= 0.70
     Davidson diagonalization with overlap
     ethr =  6.77E-10,  avg # of iterations =  2.0

     total cpu time spent up to now is       22.1 secs

     End of self-consistent calculation

          k = 0.0000 0.0000 0.0000 (  2421 PWs)   bands (ev):

  -119.2673 -73.4148 -73.4148 -73.4148  -6.7601  -0.4655  -0.4655  -0.4655
    -0.1382  -0.1382   5.4176   5.4176   5.4176

          k =-0.1250 0.1250-0.1250 (  2457 PWs)   bands (ev):

  -119.2673 -73.4148 -73.4148 -73.4148  -6.6729  -0.4541  -0.4515  -0.4515
    -0.1404  -0.1404   4.3843   5.3069   5.3069

          k =-0.2500 0.2500-0.2500 (  2451 PWs)   bands (ev):

  -119.2673 -73.4148 -73.4148 -73.4148  -6.4487  -0.4197  -0.4197  -0.3883
    -0.1379  -0.1379   2.9193   5.0623   5.0623

          k =-0.3750 0.3750-0.3750 (  2443 PWs)   bands (ev):

  -119.2673 -73.4149 -73.4148 -73.4148  -6.2015  -0.3948  -0.3948  -0.1983
    -0.1273  -0.1273   1.6750   4.8411   4.8411

          k = 0.5000-0.5000 0.5000 (  2452 PWs)   bands (ev):

  -119.2673 -73.4149 -73.4148 -73.4148  -6.0909  -0.3872  -0.3872  -0.1199
    -0.1199   0.0106   1.0699   4.7547   4.7547

          k = 0.0000 0.2500 0.0000 (  2461 PWs)   bands (ev):

  -119.2673 -73.4148 -73.4148 -73.4148  -6.6438  -0.4670  -0.4388  -0.4388
    -0.1491  -0.1320   4.3667   5.1125   5.1125

          k =-0.1250 0.3750-0.1250 (  2449 PWs)   bands (ev):

  -119.2673 -73.4148 -73.4148 -73.4148  -6.4648  -0.4436  -0.4046  -0.3964
    -0.1534  -0.1256   3.2812   4.8225   4.8634

          k =-0.2500 0.5000-0.2500 (  2445 PWs)   bands (ev):

  -119.2673 -73.4149 -73.4148 -73.4148  -6.2224  -0.4012  -0.3752  -0.2785
    -0.1322  -0.1181   2.0727   4.5237   4.6110

          k = 0.6250-0.3750 0.6250 (  2438 PWs)   bands (ev):

  -119.2673 -73.4149 -73.4148 -73.4148  -6.0614  -0.3829  -0.3652  -0.1521
    -0.1178   0.0016   1.2497   4.2395   4.5799

          k = 0.5000-0.2500 0.5000 (  2435 PWs)   bands (ev):

  -119.2673 -73.4149 -73.4148 -73.4148  -6.0983  -0.3808  -0.3739  -0.1524
    -0.1325  -0.0605   1.4504   4.1478   4.7409

          k = 0.3750-0.1250 0.3750 (  2449 PWs)   bands (ev):

  -119.2673 -73.4149 -73.4148 -73.4148  -6.3048  -0.4005  -0.3942  -0.3282
    -0.1483  -0.1186   2.4490   4.3165   5.0181

          k = 0.2500 0.0000 0.2500 (  2449 PWs)   bands (ev):

  -119.2673 -73.4148 -73.4148 -73.4148  -6.5396  -0.4344  -0.4341  -0.4184
    -0.1488  -0.1311   3.5988   4.7753   5.2625

          k = 0.0000 0.5000 0.0000 (  2429 PWs)   bands (ev):

  -119.2673 -73.4148 -73.4148 -73.4148  -6.3450  -0.4497  -0.3640  -0.3640
    -0.1600  -0.1146   3.0323   4.4765   4.4765

          k =-0.1250 0.6250-0.1250 (  2437 PWs)   bands (ev):

  -119.2673 -73.4149 -73.4148 -73.4148  -6.1477  -0.4098  -0.3259  -0.3058
    -0.1276  -0.1080   2.2730   4.0512   4.2280

          k = 0.7500-0.2500 0.7500 (  2437 PWs)   bands (ev):

  -119.2673 -73.4149 -73.4148 -73.4148  -5.9861  -0.3761  -0.3113  -0.2169
    -0.1112   0.0022   1.5836   3.5229   4.1951

          k = 0.6250-0.1250 0.6250 (  2436 PWs)   bands (ev):

  -119.2673 -73.4149 -73.4148 -73.4148  -5.9682  -0.3684  -0.3237  -0.1628
    -0.1303   0.0491   1.4692   3.2245   4.3918

          k = 0.5000 0.0000 0.5000 (  2437 PWs)   bands (ev):

  -119.2673 -73.4149 -73.4148 -73.4148  -6.1057  -0.3717  -0.3590  -0.2104
    -0.1476  -0.0823   1.9587   3.4554   4.7271

          k = 0.0000 0.7500 0.0000 (  2438 PWs)   bands (ev):

  -119.2673 -73.4149 -73.4148 -73.4148  -6.0157  -0.4107  -0.2771  -0.2771
    -0.0993  -0.0932   1.9462   3.9245   3.9245

          k = 0.8750-0.1250 0.8750 (  2438 PWs)   bands (ev):

  -119.2673 -73.4149 -73.4148 -73.4148  -5.9045  -0.3858  -0.2578  -0.2424
    -0.0995   0.0158   1.5755   3.4935   3.8472

          k = 0.7500 0.0000 0.7500 (  2430 PWs)   bands (ev):

  -119.2673 -73.4149 -73.4148 -73.4148  -5.8855  -0.3677  -0.2754  -0.2000
    -0.1155   0.1014   1.4939   2.9923   4.0307

          k = 0.0000-1.0000 0.0000 (  2450 PWs)   bands (ev):

  -119.2673 -73.4149 -73.4148 -73.4148  -5.8686  -0.3988  -0.2371  -0.2371
    -0.0926   0.0254   1.4443   3.7107   3.7107

          k =-0.2500 0.5000 0.0000 (  2440 PWs)   bands (ev):

  -119.2673 -73.4148 -73.4148 -73.4148  -6.2753  -0.4103  -0.3712  -0.3358
    -0.1493  -0.1138   2.5985   4.1100   4.7249

          k = 0.6250-0.3750 0.8750 (  2438 PWs)   bands (ev):

  -119.2673 -73.4149 -73.4148 -73.4148  -6.0709  -0.3724  -0.3489  -0.2170
    -0.1244  -0.0661   1.7901   3.6640   4.4457

          k = 0.5000-0.2500 0.7500 (  2428 PWs)   bands (ev):

  -119.2673 -73.4149 -73.4148 -73.4148  -5.9812  -0.3664  -0.3367  -0.1605
    -0.1285   0.0583   1.3523   3.5456   4.3030

          k = 0.7500-0.2500 1.0000 (  2435 PWs)   bands (ev):

  -119.2673 -73.4149 -73.4148 -73.4148  -5.9910  -0.3765  -0.3048  -0.2457
    -0.1084  -0.0427   1.8223   3.5910   3.9513

          k = 0.6250-0.1250 0.8750 (  2430 PWs)   bands (ev):

  -119.2673 -73.4149 -73.4148 -73.4148  -5.9005  -0.3565  -0.2929  -0.1908
    -0.1255   0.0878   1.5267   3.1626   3.8308

          k = 0.5000 0.0000 0.7500 (  2436 PWs)   bands (ev):

  -119.2673 -73.4149 -73.4148 -73.4148  -5.9353  -0.3538  -0.3147  -0.1699
    -0.1378   0.0577   1.5913   3.0728   4.0763

          k =-0.2500-1.0000 0.0000 (  2434 PWs)   bands (ev):

  -119.2673 -73.4149 -73.4148 -73.4148  -5.8667  -0.3701  -0.2616  -0.2181
    -0.1082   0.0805   1.4810   3.4814   3.5225

          k =-0.5000-1.0000 0.0000 (  2468 PWs)   bands (ev):

  -119.2673 -73.4149 -73.4149 -73.4148  -5.8648  -0.3465  -0.2822  -0.1632
    -0.1573   0.1297   1.5255   3.2594   3.3493

     highest occupied level (ev):     5.4176

!    total energy              =    -420.89027586 Ry
     estimated scf accuracy    <          1.2E-09 Ry

     The total energy is the sum of the following terms:
     one-electron contribution =    -356.30086282 Ry
     hartree contribution      =     180.07378792 Ry
     xc contribution           =     -40.89002329 Ry
     ewald contribution        =    -203.77317767 Ry

     convergence has been achieved in   9 iterations

     Forces acting on atoms (cartesian axes, Ry/au):

     atom    1 type  1   force =     0.00000000   -0.00000000    0.00000000
     atom    2 type  2   force =     0.00000000    0.00000000    0.00000000
     The non-local contrib.  to forces
     atom    1 type  1   force =     0.00000000    0.00000000    0.00000000
     atom    2 type  2   force =     0.00000000    0.00000000   -0.00000000
     The ionic contribution  to forces
     atom    1 type  1   force =    -0.00000000    0.00000000   -0.00000000
     atom    2 type  2   force =     0.00000000    0.00000000    0.00000000
     The local contribution  to forces
     atom    1 type  1   force =    -0.00000000    0.00000000    0.00000000
     atom    2 type  2   force =    -0.00000000   -0.00000000   -0.00000000
     The core correction contribution to forces
     atom    1 type  1   force =     0.00000000    0.00000000    0.00000000
     atom    2 type  2   force =     0.00000000    0.00000000    0.00000000
     The Hubbard contrib.    to forces
     atom    1 type  1   force =     0.00000000    0.00000000    0.00000000
     atom    2 type  2   force =     0.00000000    0.00000000    0.00000000
     The SCF correction term to forces
     atom    1 type  1   force =    -0.00000000    0.00000000    0.00000000
     atom    2 type  2   force =     0.00000000    0.00000000   -0.00000000

     Total force =     0.000000     Total SCF correction =     0.000000


     Computing stress (Cartesian axis) and pressure

          total   stress  (Ry/bohr**3)                   (kbar)     P=      -95.15
  -0.00064685   0.00000000   0.00000000          -95.15        0.00        0.00
   0.00000000  -0.00064685  -0.00000000            0.00      -95.15       -0.00
   0.00000000  -0.00000000  -0.00064685            0.00       -0.00      -95.15


     BFGS Geometry Optimization
     Energy error            =      0.0E+00 Ry
     Gradient error          =      6.6E-32 Ry/Bohr
     Cell gradient error     =      9.5E+01 kbar

     number of scf cycles    =   1
     number of bfgs steps    =   0

     enthalpy           new  =    -420.8902758585 Ry

     new trust radius        =       0.0570327051 bohr
     new conv_thr            =       0.0000000100 Ry

     new unit-cell volume =    296.11529 a.u.^3 (    43.87976 Ang^3 )
     density =      3.68742 g/cm^3

CELL_PARAMETERS (alat= 10.75443060)
  -0.491914389  -0.000000000   0.491914389
   0.000000000   0.491914389   0.491914389
  -0.491914389   0.491914389  -0.000000000

ATOMIC_POSITIONS (alat)
Zn            0.0000000000       -0.0000000000        0.0000000000
S             0.2459571945        0.2459571945        0.2459571945



     Writing config-only to output data dir /home/paolo/project_labqsm/ZnS_zincblende/SCRATCH/zns.save/
     NEW-OLD atomic charge density approx. for the potential
     extrapolated charge   24.69838, renormalised to   26.00000

     total cpu time spent up to now is       24.7 secs

     Self-consistent Calculation

     iteration #  1     ecut=    60.00 Ry     beta= 0.70
     Davidson diagonalization with overlap
     ethr =  1.00E-06,  avg # of iterations =  9.2

     total cpu time spent up to now is       28.9 secs

     total energy              =    -419.85688286 Ry
     estimated scf accuracy    <       0.70604114 Ry

     iteration #  2     ecut=    60.00 Ry     beta= 0.70
     Davidson diagonalization with overlap
     ethr =  2.72E-03,  avg # of iterations =  5.2

     total cpu time spent up to now is       31.3 secs

     total energy              =    -420.34469781 Ry
     estimated scf accuracy    <       4.51797591 Ry

     iteration #  3     ecut=    60.00 Ry     beta= 0.70
     Davidson diagonalization with overlap
     ethr =  2.72E-03,  avg # of iterations =  3.4

     total cpu time spent up to now is       33.3 secs

     total energy              =    -420.91153278 Ry
     estimated scf accuracy    <       0.21927262 Ry

     iteration #  4     ecut=    60.00 Ry     beta= 0.70
     Davidson diagonalization with overlap
     ethr =  8.43E-04,  avg # of iterations =  1.8

     total cpu time spent up to now is       34.6 secs

     total energy              =    -420.90668846 Ry
     estimated scf accuracy    <       0.09315592 Ry

     iteration #  5     ecut=    60.00 Ry     beta= 0.70
     Davidson diagonalization with overlap
     ethr =  3.58E-04,  avg # of iterations =  1.6

     total cpu time spent up to now is       35.9 secs

     total energy              =    -420.90672997 Ry
     estimated scf accuracy    <       0.04447157 Ry

     iteration #  6     ecut=    60.00 Ry     beta= 0.70
     Davidson diagonalization with overlap
     ethr =  1.71E-04,  avg # of iterations =  1.0

     total cpu time spent up to now is       37.2 secs

     total energy              =    -420.89431407 Ry
     estimated scf accuracy    <       0.03199520 Ry

     iteration #  7     ecut=    60.00 Ry     beta= 0.70
     Davidson diagonalization with overlap
     ethr =  1.23E-04,  avg # of iterations =  2.0

     total cpu time spent up to now is       38.7 secs

     total energy              =    -420.89759412 Ry
     estimated scf accuracy    <       0.00277086 Ry

     iteration #  8     ecut=    60.00 Ry     beta= 0.70
     Davidson diagonalization with overlap
     ethr =  1.07E-05,  avg # of iterations =  2.0

     total cpu time spent up to now is       40.3 secs

     total energy              =    -420.89820992 Ry
     estimated scf accuracy    <       0.00025208 Ry

     iteration #  9     ecut=    60.00 Ry     beta= 0.70
     Davidson diagonalization with overlap
     ethr =  9.70E-07,  avg # of iterations =  1.8

     total cpu time spent up to now is       41.6 secs

     total energy              =    -420.89830839 Ry
     estimated scf accuracy    <       0.00035267 Ry

     iteration # 10     ecut=    60.00 Ry     beta= 0.70
     Davidson diagonalization with overlap
     ethr =  9.70E-07,  avg # of iterations =  1.7

     total cpu time spent up to now is       43.0 secs

     total energy              =    -420.89797721 Ry
     estimated scf accuracy    <       0.00062306 Ry

     iteration # 11     ecut=    60.00 Ry     beta= 0.70
     Davidson diagonalization with overlap
     ethr =  9.70E-07,  avg # of iterations =  2.0

     total cpu time spent up to now is       44.8 secs

     total energy              =    -420.89808994 Ry
     estimated scf accuracy    <       0.00002124 Ry

     iteration # 12     ecut=    60.00 Ry     beta= 0.70
     Davidson diagonalization with overlap
     ethr =  8.17E-08,  avg # of iterations =  2.1

     total cpu time spent up to now is       46.4 secs

     total energy              =    -420.89809580 Ry
     estimated scf accuracy    <       0.00000105 Ry

     iteration # 13     ecut=    60.00 Ry     beta= 0.70
     Davidson diagonalization with overlap
     ethr =  4.03E-09,  avg # of iterations =  2.5

     total cpu time spent up to now is       48.0 secs

     total energy              =    -420.89809574 Ry
     estimated scf accuracy    <       0.00000108 Ry

     iteration # 14     ecut=    60.00 Ry     beta= 0.70
     Davidson diagonalization with overlap
     ethr =  4.03E-09,  avg # of iterations =  1.0

     total cpu time spent up to now is       49.3 secs

     total energy              =    -420.89809544 Ry
     estimated scf accuracy    <       0.00000061 Ry

     iteration # 15     ecut=    60.00 Ry     beta= 0.70
     Davidson diagonalization with overlap
     ethr =  2.35E-09,  avg # of iterations =  2.0

     total cpu time spent up to now is       50.9 secs

     End of self-consistent calculation

          k = 0.0000 0.0000 0.0000 (  2421 PWs)   bands (ev):

  -118.6776 -72.8363 -72.8363 -72.8363  -6.4171   0.0425   0.0425   0.0425
     0.4184   0.4184   6.0367   6.0367   6.0367

          k =-0.1271 0.1271-0.1271 (  2457 PWs)   bands (ev):

  -118.6776 -72.8363 -72.8363 -72.8363  -6.3211   0.0516   0.0588   0.0588
     0.4168   0.4168   4.9814   5.9157   5.9157

          k =-0.2541 0.2541-0.2541 (  2451 PWs)   bands (ev):

  -118.6776 -72.8363 -72.8363 -72.8363  -6.0731   0.0948   0.0948   0.1143
     0.4195   0.4195   3.4393   5.6490   5.6490

          k =-0.3812 0.3812-0.3812 (  2443 PWs)   bands (ev):

  -118.6776 -72.8364 -72.8363 -72.8363  -5.7971   0.1232   0.1232   0.3188
     0.4319   0.4319   2.1060   5.4088   5.4088

          k = 0.5082-0.5082 0.5082 (  2452 PWs)   bands (ev):

  -118.6776 -72.8364 -72.8363 -72.8363  -5.6726   0.1322   0.1322   0.4406
     0.4406   0.5848   1.4133   5.3152   5.3152

          k = 0.0000 0.2541 0.0000 (  2461 PWs)   bands (ev):

  -118.6776 -72.8363 -72.8363 -72.8363  -6.2891   0.0364   0.0733   0.0733
     0.4064   0.4262   4.9813   5.7024   5.7024

          k =-0.1271 0.3812-0.1271 (  2449 PWs)   bands (ev):

  -118.6776 -72.8363 -72.8363 -72.8363  -6.0912   0.0574   0.1117   0.1171
     0.4014   0.4337   3.8356   5.3867   5.4364

          k =-0.2541 0.5082-0.2541 (  2445 PWs)   bands (ev):

  -118.6776 -72.8363 -72.8363 -72.8363  -5.8209   0.1120   0.1453   0.2339
     0.4237   0.4425   2.5411   5.0730   5.1577

          k = 0.6353-0.3812 0.6353 (  2438 PWs)   bands (ev):

  -118.6776 -72.8364 -72.8363 -72.8363  -5.6400   0.1348   0.1568   0.3981
     0.4428   0.5689   1.6220   4.7683   5.1246

          k = 0.5082-0.2541 0.5082 (  2435 PWs)   bands (ev):

  -118.6776 -72.8364 -72.8363 -72.8363  -5.6816   0.1376   0.1471   0.3900
     0.4254   0.4942   1.8546   4.6676   5.2999

          k = 0.3812-0.1271 0.3812 (  2449 PWs)   bands (ev):

  -118.6776 -72.8363 -72.8363 -72.8363  -5.9131   0.1170   0.1218   0.1771
     0.4075   0.4415   2.9465   4.8430   5.6016

          k = 0.2541 0.0000 0.2541 (  2449 PWs)   bands (ev):

  -118.6776 -72.8363 -72.8363 -72.8363  -6.1739   0.0688   0.0786   0.0947
     0.4070   0.4270   4.1680   5.3342   5.8679

          k = 0.0000 0.5082 0.0000 (  2429 PWs)   bands (ev):

  -118.6776 -72.8363 -72.8363 -72.8363  -5.9583   0.0417   0.1576   0.1576
     0.3924   0.4459   3.5945   5.0109   5.0109

          k =-0.1271 0.6353-0.1271 (  2437 PWs)   bands (ev):

  -118.6776 -72.8363 -72.8363 -72.8363  -5.7381   0.0851   0.2013   0.2192
     0.4261   0.4542   2.7804   4.5548   4.7418

          k = 0.7623-0.2541 0.7623 (  2437 PWs)   bands (ev):

  -118.6776 -72.8364 -72.8363 -72.8363  -5.5563   0.1344   0.2181   0.3204
     0.4503   0.5686   2.0092   3.9938   4.7065

          k = 0.6353-0.1271 0.6353 (  2436 PWs)   bands (ev):

  -118.6776 -72.8364 -72.8363 -72.8363  -5.5359   0.1475   0.2040   0.3881
     0.4280   0.6215   1.8674   3.6751   4.9203

          k = 0.5082 0.0000 0.5082 (  2437 PWs)   bands (ev):

  -118.6776 -72.8363 -72.8363 -72.8363  -5.6905   0.1463   0.1638   0.3131
     0.4081   0.4756   2.4261   3.9146   5.2847

          k = 0.0000 0.7623 0.0000 (  2438 PWs)   bands (ev):

  -118.6776 -72.8364 -72.8363 -72.8363  -5.5902   0.0756   0.2574   0.2574
     0.4625   0.4648   2.4394   4.4129   4.4129

          k = 0.8894-0.1271 0.8894 (  2438 PWs)   bands (ev):

  -118.6776 -72.8364 -72.8363 -72.8363  -5.4648   0.1095   0.2801   0.2970
     0.4639   0.5860   2.0244   3.9469   4.3291

          k = 0.7623 0.0000 0.7623 (  2430 PWs)   bands (ev):

  -118.6776 -72.8364 -72.8363 -72.8363  -5.4432   0.1407   0.2596   0.3459
     0.4448   0.6891   1.9079   3.4105   4.5284

          k = 0.0000-1.0164 0.0000 (  2450 PWs)   bands (ev):

  -118.6776 -72.8364 -72.8363 -72.8363  -5.4243   0.0900   0.3046   0.3046
     0.4727   0.5991   1.8845   4.1809   4.1809

          k =-0.2541 0.5082 0.0000 (  2440 PWs)   bands (ev):

  -118.6776 -72.8363 -72.8363 -72.8363  -5.8804   0.0934   0.1487   0.1800
     0.4049   0.4468   3.1204   4.6150   5.2838

          k = 0.6353-0.3812 0.8894 (  2438 PWs)   bands (ev):

  -118.6776 -72.8363 -72.8363 -72.8363  -5.6515   0.1436   0.1739   0.3132
     0.4342   0.4911   2.2385   4.1444   4.9789

          k = 0.5082-0.2541 0.7623 (  2428 PWs)   bands (ev):

  -118.6776 -72.8364 -72.8363 -72.8363  -5.5504   0.1514   0.1884   0.3898
     0.4296   0.6375   1.7313   4.0250   4.8226

          k = 0.7623-0.2541 1.0164 (  2435 PWs)   bands (ev):

  -118.6776 -72.8364 -72.8363 -72.8363  -5.5622   0.1251   0.2255   0.2891
     0.4533   0.5174   2.2926   4.0553   4.4414

          k = 0.6353-0.1271 0.8894 (  2430 PWs)   bands (ev):

  -118.6776 -72.8364 -72.8363 -72.8363  -5.4601   0.1558   0.2397   0.3550
     0.4325   0.6710   1.9432   3.5983   4.3101

          k = 0.5082 0.0000 0.7623 (  2436 PWs)   bands (ev):

  -118.6776 -72.8363 -72.8363 -72.8363  -5.4992   0.1631   0.2136   0.3798
     0.4182   0.6307   2.0139   3.5028   4.5771

          k =-0.2541-1.0164 0.0000 (  2434 PWs)   bands (ev):

  -118.6776 -72.8364 -72.8363 -72.8363  -5.4221   0.1314   0.2768   0.3240
     0.4536   0.6639   1.9090   3.9420   3.9686

          k =-0.5082-1.0164 0.0000 (  2468 PWs)   bands (ev):

  -118.6776 -72.8363 -72.8363 -72.8363  -5.4199   0.1687   0.2549   0.3910
     0.3913   0.7240   1.9391   3.7136   3.7735

     highest occupied level (ev):     6.0367

!    total energy              =    -420.89809557 Ry
     estimated scf accuracy    <          2.1E-09 Ry

     The total energy is the sum of the following terms:
     one-electron contribution =    -350.61174175 Ry
     hartree contribution      =     177.76146169 Ry
     xc contribution           =     -40.92521227 Ry
     ewald contribution        =    -207.12260325 Ry

     convergence has been achieved in  15 iterations

     Forces acting on atoms (cartesian axes, Ry/au):

     atom    1 type  1   force =    -0.00000000    0.00000000   -0.00000000
     atom    2 type  2   force =    -0.00000000    0.00000000   -0.00000000
     The non-local contrib.  to forces
     atom    1 type  1   force =     0.00000000   -0.00000000    0.00000000
     atom    2 type  2   force =     0.00000000    0.00000000    0.00000000
     The ionic contribution  to forces
     atom    1 type  1   force =    -0.00000000   -0.00000000   -0.00000000
     atom    2 type  2   force =    -0.00000000    0.00000000    0.00000000
     The local contribution  to forces
     atom    1 type  1   force =    -0.00000000    0.00000000    0.00000000
     atom    2 type  2   force =     0.00000000    0.00000000   -0.00000000
     The core correction contribution to forces
     atom    1 type  1   force =     0.00000000    0.00000000    0.00000000
     atom    2 type  2   force =     0.00000000    0.00000000    0.00000000
     The Hubbard contrib.    to forces
     atom    1 type  1   force =     0.00000000    0.00000000    0.00000000
     atom    2 type  2   force =     0.00000000    0.00000000    0.00000000
     The SCF correction term to forces
     atom    1 type  1   force =    -0.00000000   -0.00000000    0.00000000
     atom    2 type  2   force =     0.00000000   -0.00000000    0.00000000

     Total force =     0.000000     Total SCF correction =     0.000000


     Computing stress (Cartesian axis) and pressure

          total   stress  (Ry/bohr**3)                   (kbar)     P=      -59.70
  -0.00040580   0.00000000  -0.00000000          -59.70        0.00       -0.00
   0.00000000  -0.00040580  -0.00000000            0.00      -59.70       -0.00
  -0.00000000  -0.00000000  -0.00040580           -0.00       -0.00      -59.70

     Energy error            =      7.8E-03 Ry
     Gradient error          =      5.8E-32 Ry/Bohr
     Cell gradient error     =      6.0E+01 kbar

     number of scf cycles    =   2
     number of bfgs steps    =   1

     enthalpy           old  =    -420.8902758585 Ry
     enthalpy           new  =    -420.8980955706 Ry

     CASE: enthalpy          _new < enthalpy          _old

     new trust radius        =       0.0848545219 bohr
     new conv_thr            =            1.0E-10 Ry

     new unit-cell volume =    274.74823 a.u.^3 (    40.71349 Ang^3 )
     density =      3.97418 g/cm^3

CELL_PARAMETERS (alat= 10.75443060)
  -0.479785973  -0.000000000   0.479785973
   0.000000000   0.479785973   0.479785973
  -0.479785973   0.479785973  -0.000000000

ATOMIC_POSITIONS (alat)
Zn           -0.0000000000       -0.0000000000       -0.0000000000
S             0.2398929863        0.2398929863        0.2398929863



     Writing config-only to output data dir /home/paolo/project_labqsm/ZnS_zincblende/SCRATCH/zns.save/
     NEW-OLD atomic charge density approx. for the potential
     extrapolated charge   23.98056, renormalised to   26.00000

     total cpu time spent up to now is       53.5 secs

     Self-consistent Calculation

     iteration #  1     ecut=    60.00 Ry     beta= 0.70
     Davidson diagonalization with overlap
     ethr =  1.00E-06,  avg # of iterations = 10.4

     total cpu time spent up to now is       57.9 secs

     total energy              =    -418.60263436 Ry
     estimated scf accuracy    <       1.56697912 Ry

     iteration #  2     ecut=    60.00 Ry     beta= 0.70
     Davidson diagonalization with overlap
     ethr =  6.03E-03,  avg # of iterations =  6.9

     total cpu time spent up to now is       60.6 secs

     total energy              =    -418.55016102 Ry
     estimated scf accuracy    <      18.31705865 Ry

     iteration #  3     ecut=    60.00 Ry     beta= 0.70
     Davidson diagonalization with overlap
     ethr =  6.03E-03,  avg # of iterations =  5.4

     total cpu time spent up to now is       63.0 secs

     total energy              =    -420.93808862 Ry
     estimated scf accuracy    <       0.27656831 Ry

     iteration #  4     ecut=    60.00 Ry     beta= 0.70
     Davidson diagonalization with overlap
     ethr =  1.06E-03,  avg # of iterations =  1.2

     total cpu time spent up to now is       64.2 secs

     total energy              =    -420.91658076 Ry
     estimated scf accuracy    <       0.14688313 Ry

     iteration #  5     ecut=    60.00 Ry     beta= 0.70
     Davidson diagonalization with overlap
     ethr =  5.65E-04,  avg # of iterations =  1.1

     total cpu time spent up to now is       65.5 secs

     total energy              =    -420.90834615 Ry
     estimated scf accuracy    <       0.06431939 Ry

     iteration #  6     ecut=    60.00 Ry     beta= 0.70
     Davidson diagonalization with overlap
     ethr =  2.47E-04,  avg # of iterations =  1.3

     total cpu time spent up to now is       66.8 secs

     total energy              =    -420.90294359 Ry
     estimated scf accuracy    <       0.02914876 Ry

     iteration #  7     ecut=    60.00 Ry     beta= 0.70
     Davidson diagonalization with overlap
     ethr =  1.12E-04,  avg # of iterations =  2.0

     total cpu time spent up to now is       68.2 secs

     total energy              =    -420.90236239 Ry
     estimated scf accuracy    <       0.00826371 Ry

     iteration #  8     ecut=    60.00 Ry     beta= 0.70
     Davidson diagonalization with overlap
     ethr =  3.18E-05,  avg # of iterations =  2.0

     total cpu time spent up to now is       69.8 secs

     total energy              =    -420.90315473 Ry
     estimated scf accuracy    <       0.00126991 Ry

     iteration #  9     ecut=    60.00 Ry     beta= 0.70
     Davidson diagonalization with overlap
     ethr =  4.88E-06,  avg # of iterations =  2.0

     total cpu time spent up to now is       71.1 secs

     total energy              =    -420.90310689 Ry
     estimated scf accuracy    <       0.00054235 Ry

     iteration # 10     ecut=    60.00 Ry     beta= 0.70
     Davidson diagonalization with overlap
     ethr =  2.09E-06,  avg # of iterations =  2.0

     total cpu time spent up to now is       72.5 secs

     total energy              =    -420.90302862 Ry
     estimated scf accuracy    <       0.00021068 Ry

     iteration # 11     ecut=    60.00 Ry     beta= 0.70
     Davidson diagonalization with overlap
     ethr =  8.10E-07,  avg # of iterations =  2.0

     total cpu time spent up to now is       74.1 secs

     total energy              =    -420.90307844 Ry
     estimated scf accuracy    <       0.00000217 Ry

     iteration # 12     ecut=    60.00 Ry     beta= 0.70
     Davidson diagonalization with overlap
     ethr =  8.36E-09,  avg # of iterations =  3.9

     total cpu time spent up to now is       76.2 secs

     total energy              =    -420.90308003 Ry
     estimated scf accuracy    <       0.00000035 Ry

     iteration # 13     ecut=    60.00 Ry     beta= 0.70
     Davidson diagonalization with overlap
     ethr =  1.34E-09,  avg # of iterations =  3.0

     total cpu time spent up to now is       77.9 secs

     total energy              =    -420.90307972 Ry
     estimated scf accuracy    <       0.00000114 Ry

     iteration # 14     ecut=    60.00 Ry     beta= 0.70
     Davidson diagonalization with overlap
     ethr =  1.34E-09,  avg # of iterations =  2.4

     total cpu time spent up to now is       79.6 secs

     total energy              =    -420.90307996 Ry
     estimated scf accuracy    <          5.3E-09 Ry

     iteration # 15     ecut=    60.00 Ry     beta= 0.70
     Davidson diagonalization with overlap
     ethr =  2.02E-11,  avg # of iterations =  3.1

     total cpu time spent up to now is       81.7 secs

     total energy              =    -420.90307996 Ry
     estimated scf accuracy    <          7.1E-09 Ry

     iteration # 16     ecut=    60.00 Ry     beta= 0.70
     Davidson diagonalization with overlap
     ethr =  2.02E-11,  avg # of iterations =  2.0

     total cpu time spent up to now is       83.2 secs

     total energy              =    -420.90307996 Ry
     estimated scf accuracy    <          1.0E-09 Ry

     iteration # 17     ecut=    60.00 Ry     beta= 0.70
     Davidson diagonalization with overlap
     ethr =  3.92E-12,  avg # of iterations =  2.0

     total cpu time spent up to now is       84.7 secs

     total energy              =    -420.90307996 Ry
     estimated scf accuracy    <          3.9E-10 Ry

     iteration # 18     ecut=    60.00 Ry     beta= 0.70
     Davidson diagonalization with overlap
     ethr =  1.48E-12,  avg # of iterations =  1.4

     total cpu time spent up to now is       86.0 secs

     total energy              =    -420.90307996 Ry
     estimated scf accuracy    <          1.4E-10 Ry

     iteration # 19     ecut=    60.00 Ry     beta= 0.70
     Davidson diagonalization with overlap
     ethr =  5.38E-13,  avg # of iterations =  2.0

     total cpu time spent up to now is       87.6 secs

     End of self-consistent calculation

          k = 0.0000 0.0000 0.0000 (  2421 PWs)   bands (ev):

  -117.7640 -71.9330 -71.9330 -71.9330  -5.8674   0.8379   0.8379   0.8379
     1.2968   1.2968   7.0562   7.0562   7.0562

          k =-0.1303 0.1303-0.1303 (  2457 PWs)   bands (ev):

  -117.7640 -71.9330 -71.9330 -71.9330  -5.7570   0.8418   0.8575   0.8575
     1.2953   1.2953   5.9618   6.9174   6.9174

          k =-0.2605 0.2605-0.2605 (  2451 PWs)   bands (ev):

  -117.7640 -71.9331 -71.9330 -71.9330  -5.4696   0.8948   0.9004   0.9004
     1.2983   1.2983   4.2983   6.6138   6.6138

          k =-0.3908 0.3908-0.3908 (  2443 PWs)   bands (ev):

  -117.7640 -71.9331 -71.9330 -71.9330  -5.1452   0.9344   0.9344   1.1116
     1.3138   1.3138   2.8307   6.3421   6.3421

          k = 0.5211-0.5211 0.5211 (  2452 PWs)   bands (ev):

  -117.7640 -71.9331 -71.9330 -71.9330  -4.9970   0.9452   0.9452   1.3247
     1.3247   1.4903   1.9748   6.2363   6.2363

          k = 0.0000 0.2605 0.0000 (  2461 PWs)   bands (ev):

  -117.7640 -71.9330 -71.9330 -71.9330  -5.7202   0.8226   0.8746   0.8746
     1.2819   1.3068   5.9932   6.6720   6.6720

          k =-0.1303 0.3908-0.1303 (  2449 PWs)   bands (ev):

  -117.7640 -71.9331 -71.9330 -71.9330  -5.4910   0.8361   0.9201   0.9222
     1.2752   1.3161   4.7501   6.3134   6.3799

          k =-0.2605 0.5211-0.2605 (  2445 PWs)   bands (ev):

  -117.7640 -71.9331 -71.9330 -71.9330  -5.1743   0.9103   0.9605   1.0290
     1.3000   1.3270   3.3215   5.9778   6.0556

          k = 0.6513-0.3908 0.6513 (  2438 PWs)   bands (ev):

  -117.7640 -71.9331 -71.9330 -71.9330  -4.9592   0.9445   0.9745   1.2566
     1.3274   1.4575   2.2449   5.6395   6.0193

          k = 0.5211-0.2605 0.5211 (  2435 PWs)   bands (ev):

  -117.7640 -71.9331 -71.9330 -71.9330  -5.0089   0.9486   0.9633   1.2233
     1.3054   1.3686   2.5363   5.5233   6.2187

          k = 0.3908-0.1303 0.3908 (  2449 PWs)   bands (ev):

  -117.7640 -71.9331 -71.9330 -71.9330  -5.2827   0.9260   0.9277   0.9623
     1.2832   1.3250   3.7722   5.7085   6.5614

          k = 0.2605 0.0000 0.2605 (  2449 PWs)   bands (ev):

  -117.7640 -71.9330 -71.9330 -71.9330  -5.5869   0.8521   0.8815   0.8985
     1.2828   1.3075   5.1066   6.2513   6.8645

          k = 0.0000 0.5211 0.0000 (  2429 PWs)   bands (ev):

  -117.7640 -71.9331 -71.9330 -71.9330  -5.3365   0.8046   0.9748   0.9748
     1.2622   1.3310   4.5273   5.8882   5.8882

          k =-0.1303 0.6513-0.1303 (  2437 PWs)   bands (ev):

  -117.7640 -71.9331 -71.9330 -71.9330  -5.0778   0.8478   1.0280   1.0426
     1.2982   1.3417   3.6253   5.3830   5.5853

          k = 0.7816-0.2605 0.7816 (  2437 PWs)   bands (ev):

  -117.7640 -71.9331 -71.9331 -71.9330  -4.8615   0.9255   1.0486   1.1595
     1.3366   1.4587   2.7200   4.7716   5.5461

          k = 0.6513-0.1303 0.6513 (  2436 PWs)   bands (ev):

  -117.7640 -71.9331 -71.9331 -71.9330  -4.8368   0.9517   1.0320   1.2530
     1.3084   1.5177   2.5290   4.4200   5.7883

          k = 0.5211 0.0000 0.5211 (  2437 PWs)   bands (ev):

  -117.7640 -71.9331 -71.9331 -71.9330  -5.0206   0.9557   0.9838   1.1189
     1.2836   1.3568   3.2091   4.6699   6.2012

          k = 0.0000 0.7816 0.0000 (  2438 PWs)   bands (ev):

  -117.7640 -71.9331 -71.9331 -71.9331  -4.9030   0.8221   1.0969   1.0969
     1.3365   1.3551   3.2649   5.2142   5.2142

          k = 0.9119-0.1303 0.9119 (  2438 PWs)   bands (ev):

  -117.7640 -71.9331 -71.9331 -71.9331  -4.7532   0.8691   1.1252   1.1442
     1.3535   1.4836   2.7775   4.6906   5.1198

          k = 0.7816 0.0000 0.7816 (  2430 PWs)   bands (ev):

  -117.7640 -71.9331 -71.9331 -71.9330  -4.7269   0.9272   1.0999   1.2042
     1.3291   1.6199   2.5918   4.0992   5.3453

          k = 0.0000-1.0421 0.0000 (  2450 PWs)   bands (ev):

  -117.7640 -71.9331 -71.9331 -71.9331  -4.7048   0.8368   1.1561   1.1561
     1.3651   1.5034   2.6237   4.9519   4.9519

          k =-0.2605 0.5211 0.0000 (  2440 PWs)   bands (ev):

  -117.7640 -71.9331 -71.9330 -71.9330  -5.2449   0.8716   0.9625   0.9901
     1.2778   1.3317   3.9874   5.4435   6.2030

          k = 0.6513-0.3908 0.9119 (  2438 PWs)   bands (ev):

  -117.7640 -71.9331 -71.9331 -71.9330  -4.9744   0.9472   0.9918   1.1351
     1.3143   1.3699   2.9889   4.9361   5.8550

          k = 0.5211-0.2605 0.7816 (  2428 PWs)   bands (ev):

  -117.7640 -71.9331 -71.9331 -71.9330  -4.8538   0.9600   1.0109   1.2529
     1.3091   1.5519   2.3558   4.8173   5.6754

          k = 0.7816-0.2605 1.0421 (  2435 PWs)   bands (ev):

  -117.7640 -71.9331 -71.9331 -71.9330  -4.8692   0.8972   1.0569   1.1280
     1.3396   1.3988   3.0810   4.8173   5.2462

          k = 0.6513-0.1303 0.9119 (  2430 PWs)   bands (ev):

  -117.7640 -71.9331 -71.9331 -71.9331  -4.7472   0.9508   1.0752   1.2117
     1.3121   1.5918   2.6346   4.3156   5.0969

          k = 0.5211 0.0000 0.7816 (  2436 PWs)   bands (ev):

  -117.7640 -71.9331 -71.9331 -71.9330  -4.7936   0.9683   1.0413   1.2427
     1.2938   1.5288   2.7196   4.2113   5.3994

          k =-0.2605-1.0421 0.0000 (  2434 PWs)   bands (ev):

  -117.7640 -71.9331 -71.9331 -71.9331  -4.7021   0.9029   1.1234   1.1753
     1.3400   1.5866   2.6233   4.6978   4.7001

          k =-0.5211-1.0421 0.0000 (  2468 PWs)   bands (ev):

  -117.7640 -71.9331 -71.9331 -71.9331  -4.6994   0.9694   1.0987   1.2493
     1.2638   1.6668   2.6230   4.4639   4.4648

     highest occupied level (ev):     7.0562

!    total energy              =    -420.90307996 Ry
     estimated scf accuracy    <          1.1E-12 Ry

     The total energy is the sum of the following terms:
     one-electron contribution =    -341.72447681 Ry
     hartree contribution      =     174.16107056 Ry
     xc contribution           =     -40.98125839 Ry
     ewald contribution        =    -212.35841532 Ry

     convergence has been achieved in  19 iterations

     Forces acting on atoms (cartesian axes, Ry/au):

     atom    1 type  1   force =    -0.00000000    0.00000000    0.00000000
     atom    2 type  2   force =     0.00000000    0.00000000    0.00000000
     The non-local contrib.  to forces
     atom    1 type  1   force =     0.00000000   -0.00000000    0.00000000
     atom    2 type  2   force =     0.00000000    0.00000000    0.00000000
     The ionic contribution  to forces
     atom    1 type  1   force =     0.00000000    0.00000000    0.00000000
     atom    2 type  2   force =    -0.00000000   -0.00000000   -0.00000000
     The local contribution  to forces
     atom    1 type  1   force =    -0.00000000    0.00000000    0.00000000
     atom    2 type  2   force =     0.00000000    0.00000000    0.00000000
     The core correction contribution to forces
     atom    1 type  1   force =     0.00000000    0.00000000    0.00000000
     atom    2 type  2   force =     0.00000000    0.00000000    0.00000000
     The Hubbard contrib.    to forces
     atom    1 type  1   force =     0.00000000    0.00000000    0.00000000
     atom    2 type  2   force =     0.00000000    0.00000000    0.00000000
     The SCF correction term to forces
     atom    1 type  1   force =    -0.00000000   -0.00000000    0.00000000
     atom    2 type  2   force =    -0.00000000    0.00000000    0.00000000

     Total force =     0.000000     Total SCF correction =     0.000000


     Computing stress (Cartesian axis) and pressure

          total   stress  (Ry/bohr**3)                   (kbar)     P=       -7.53
  -0.00005117  -0.00000000  -0.00000000           -7.53       -0.00       -0.00
  -0.00000000  -0.00005117   0.00000000           -0.00       -7.53        0.00
  -0.00000000   0.00000000  -0.00005117           -0.00        0.00       -7.53

     Energy error            =      5.0E-03 Ry
     Gradient error          =      3.4E-31 Ry/Bohr
     Cell gradient error     =      7.5E+00 kbar

     number of scf cycles    =   3
     number of bfgs steps    =   2

     enthalpy           old  =    -420.8980955706 Ry
     enthalpy           new  =    -420.9030799632 Ry

     CASE: enthalpy          _new < enthalpy          _old

     new trust radius        =       0.0114233044 bohr
     new conv_thr            =            1.0E-10 Ry

     new unit-cell volume =    271.91779 a.u.^3 (    40.29406 Ang^3 )
     density =      4.01555 g/cm^3

CELL_PARAMETERS (alat= 10.75443060)
  -0.478132710  -0.000000000   0.478132710
   0.000000000   0.478132710   0.478132710
  -0.478132710   0.478132710  -0.000000000

ATOMIC_POSITIONS (alat)
Zn           -0.0000000000        0.0000000000        0.0000000000
S             0.2390663549        0.2390663549        0.2390663549



     Writing config-only to output data dir /home/paolo/project_labqsm/ZnS_zincblende/SCRATCH/zns.save/
     NEW-OLD atomic charge density approx. for the potential
     extrapolated charge   25.72971, renormalised to   26.00000

     total cpu time spent up to now is       90.2 secs

     Self-consistent Calculation

     iteration #  1     ecut=    60.00 Ry     beta= 0.70
     Davidson diagonalization with overlap
     ethr =  1.00E-06,  avg # of iterations =  6.7

     total cpu time spent up to now is       93.4 secs

     total energy              =    -420.84754098 Ry
     estimated scf accuracy    <       0.03807387 Ry

     iteration #  2     ecut=    60.00 Ry     beta= 0.70
     Davidson diagonalization with overlap
     ethr =  1.46E-04,  avg # of iterations =  3.0

     total cpu time spent up to now is       95.5 secs

     total energy              =    -420.89707748 Ry
     estimated scf accuracy    <       0.12503693 Ry

     iteration #  3     ecut=    60.00 Ry     beta= 0.70
     Davidson diagonalization with overlap
     ethr =  1.46E-04,  avg # of iterations =  2.0

     total cpu time spent up to now is       97.1 secs

     total energy              =    -420.90332024 Ry
     estimated scf accuracy    <       0.01840957 Ry

     iteration #  4     ecut=    60.00 Ry     beta= 0.70
     Davidson diagonalization with overlap
     ethr =  7.08E-05,  avg # of iterations =  2.0

     total cpu time spent up to now is       98.6 secs

     total energy              =    -420.90306950 Ry
     estimated scf accuracy    <       0.00518453 Ry

     iteration #  5     ecut=    60.00 Ry     beta= 0.70
     Davidson diagonalization with overlap
     ethr =  1.99E-05,  avg # of iterations =  2.0

     total cpu time spent up to now is      100.1 secs

     total energy              =    -420.90368321 Ry
     estimated scf accuracy    <       0.00122821 Ry

     iteration #  6     ecut=    60.00 Ry     beta= 0.70
     Davidson diagonalization with overlap
     ethr =  4.72E-06,  avg # of iterations =  1.0

     total cpu time spent up to now is      101.4 secs

     total energy              =    -420.90369033 Ry
     estimated scf accuracy    <       0.00150903 Ry

     iteration #  7     ecut=    60.00 Ry     beta= 0.70
     Davidson diagonalization with overlap
     ethr =  4.72E-06,  avg # of iterations =  1.0

     total cpu time spent up to now is      102.6 secs

     total energy              =    -420.90352603 Ry
     estimated scf accuracy    <       0.00150899 Ry

     iteration #  8     ecut=    60.00 Ry     beta= 0.70
     Davidson diagonalization with overlap
     ethr =  4.72E-06,  avg # of iterations =  1.0

     total cpu time spent up to now is      103.9 secs

     total energy              =    -420.90303011 Ry
     estimated scf accuracy    <       0.00110052 Ry

     iteration #  9     ecut=    60.00 Ry     beta= 0.70
     Davidson diagonalization with overlap
     ethr =  4.23E-06,  avg # of iterations =  2.0

     total cpu time spent up to now is      105.5 secs

     total energy              =    -420.90312008 Ry
     estimated scf accuracy    <       0.00008744 Ry

     iteration # 10     ecut=    60.00 Ry     beta= 0.70
     Davidson diagonalization with overlap
     ethr =  3.36E-07,  avg # of iterations =  2.1

     total cpu time spent up to now is      107.2 secs

     total energy              =    -420.90315096 Ry
     estimated scf accuracy    <       0.00000184 Ry

     iteration # 11     ecut=    60.00 Ry     beta= 0.70
     Davidson diagonalization with overlap
     ethr =  7.07E-09,  avg # of iterations =  3.1

     total cpu time spent up to now is      109.3 secs

     total energy              =    -420.90315122 Ry
     estimated scf accuracy    <       0.00000426 Ry

     iteration # 12     ecut=    60.00 Ry     beta= 0.70
     Davidson diagonalization with overlap
     ethr =  7.07E-09,  avg # of iterations =  2.0

     total cpu time spent up to now is      110.9 secs

     total energy              =    -420.90315148 Ry
     estimated scf accuracy    <       0.00000061 Ry

     iteration # 13     ecut=    60.00 Ry     beta= 0.70
     Davidson diagonalization with overlap
     ethr =  2.35E-09,  avg # of iterations =  1.2

     total cpu time spent up to now is      112.2 secs

     total energy              =    -420.90315137 Ry
     estimated scf accuracy    <       0.00000029 Ry

     iteration # 14     ecut=    60.00 Ry     beta= 0.70
     Davidson diagonalization with overlap
     ethr =  1.13E-09,  avg # of iterations =  2.0

     total cpu time spent up to now is      113.8 secs

     total energy              =    -420.90315143 Ry
     estimated scf accuracy    <       0.00000001 Ry

     iteration # 15     ecut=    60.00 Ry     beta= 0.70
     Davidson diagonalization with overlap
     ethr =  4.08E-11,  avg # of iterations =  2.0

     total cpu time spent up to now is      115.6 secs

     total energy              =    -420.90315142 Ry
     estimated scf accuracy    <       0.00000004 Ry

     iteration # 16     ecut=    60.00 Ry     beta= 0.70
     Davidson diagonalization with overlap
     ethr =  4.08E-11,  avg # of iterations =  2.0

     total cpu time spent up to now is      117.4 secs

     total energy              =    -420.90315143 Ry
     estimated scf accuracy    <          2.2E-09 Ry

     iteration # 17     ecut=    60.00 Ry     beta= 0.70
     Davidson diagonalization with overlap
     ethr =  8.45E-12,  avg # of iterations =  2.0

     total cpu time spent up to now is      119.2 secs

     total energy              =    -420.90315142 Ry
     estimated scf accuracy    <       0.00000001 Ry

     iteration # 18     ecut=    60.00 Ry     beta= 0.70
     Davidson diagonalization with overlap
     ethr =  8.45E-12,  avg # of iterations =  2.0

     total cpu time spent up to now is      121.0 secs

     total energy              =    -420.90315142 Ry
     estimated scf accuracy    <          2.4E-09 Ry

     iteration # 19     ecut=    60.00 Ry     beta= 0.70
     Davidson diagonalization with overlap
     ethr =  8.45E-12,  avg # of iterations =  2.0

     total cpu time spent up to now is      122.6 secs

     End of self-consistent calculation

          k = 0.0000 0.0000 0.0000 (  2421 PWs)   bands (ev):

  -117.6358 -71.8058 -71.8058 -71.8058  -5.7889   0.9497   0.9497   0.9497
     1.4209   1.4209   7.2042   7.2042   7.2042

          k =-0.1307 0.1307-0.1307 (  2457 PWs)   bands (ev):

  -117.6359 -71.8059 -71.8059 -71.8059  -5.6764   0.9528   0.9698   0.9698
     1.4193   1.4193   6.1039   7.0628   7.0628

          k =-0.2614 0.2614-0.2614 (  2451 PWs)   bands (ev):

  -117.6358 -71.8059 -71.8059 -71.8059  -5.3833   1.0040   1.0137   1.0137
     1.4225   1.4225   4.4233   6.7538   6.7538

          k =-0.3922 0.3922-0.3922 (  2443 PWs)   bands (ev):

  -117.6358 -71.8060 -71.8059 -71.8059  -5.0518   1.0485   1.0485   1.2213
     1.4384   1.4384   2.9374   6.4775   6.4775

          k = 0.5229-0.5229 0.5229 (  2452 PWs)   bands (ev):

  -117.6358 -71.8060 -71.8059 -71.8059  -4.9000   1.0595   1.0595   1.4496
     1.4496   1.6180   2.0562   6.3699   6.3699

          k = 0.0000 0.2614 0.0000 (  2461 PWs)   bands (ev):

  -117.6359 -71.8059 -71.8059 -71.8059  -5.6389   0.9330   0.9872   0.9872
     1.4055   1.4312   6.1401   6.8126   6.8126

          k =-0.1307 0.3922-0.1307 (  2449 PWs)   bands (ev):

  -117.6358 -71.8059 -71.8059 -71.8059  -5.4052   0.9451   1.0338   1.0355
     1.3986   1.4407   4.8831   6.4478   6.5170

          k =-0.2614 0.5229-0.2614 (  2445 PWs)   bands (ev):

  -117.6358 -71.8060 -71.8059 -71.8059  -5.0817   1.0218   1.0751   1.1403
     1.4238   1.4520   3.4356   6.1093   6.1857

          k = 0.6536-0.3922 0.6536 (  2438 PWs)   bands (ev):

  -117.6358 -71.8060 -71.8059 -71.8059  -4.8615   1.0583   1.0896   1.3766
     1.4524   1.5822   2.3371   5.7661   6.1491

          k = 0.5229-0.2614 0.5229 (  2435 PWs)   bands (ev):

  -117.6358 -71.8060 -71.8059 -71.8059  -4.9124   1.0626   1.0782   1.3382
     1.4297   1.4923   2.6373   5.6476   6.3519

          k = 0.3922-0.1307 0.3922 (  2449 PWs)   bands (ev):

  -117.6358 -71.8059 -71.8059 -71.8059  -5.1924   1.0382   1.0418   1.0727
     1.4068   1.4498   3.8927   5.8341   6.7007

          k = 0.2614 0.0000 0.2614 (  2449 PWs)   bands (ev):

  -117.6358 -71.8059 -71.8059 -71.8059  -5.5030   0.9620   0.9944   1.0115
     1.4064   1.4320   5.2430   6.3841   7.0092

          k = 0.0000 0.5229 0.0000 (  2429 PWs)   bands (ev):

  -117.6358 -71.8059 -71.8059 -71.8059  -5.2476   0.9114   1.0898   1.0898
     1.3849   1.4561   4.6633   6.0153   6.0153

          k =-0.1307 0.6536-0.1307 (  2437 PWs)   bands (ev):

  -117.6358 -71.8060 -71.8059 -71.8059  -4.9832   0.9540   1.1444   1.1585
     1.4212   1.4671   3.7488   5.5032   5.7075

          k = 0.7843-0.2614 0.7843 (  2437 PWs)   bands (ev):

  -117.6358 -71.8060 -71.8059 -71.8059  -4.7618   1.0358   1.1656   1.2772
     1.4619   1.5842   2.8243   4.8848   5.6678

          k = 0.6536-0.1307 0.6536 (  2436 PWs)   bands (ev):

  -117.6358 -71.8060 -71.8059 -71.8059  -4.7364   1.0644   1.1486   1.3747
     1.4328   1.6434   2.6262   4.5286   5.9142

          k = 0.5229 0.0000 0.5229 (  2437 PWs)   bands (ev):

  -117.6358 -71.8060 -71.8059 -71.8059  -4.9246   1.0694   1.0992   1.2309
     1.4073   1.4815   3.3241   4.7795   6.3342

          k = 0.0000 0.7843 0.0000 (  2438 PWs)   bands (ev):

  -117.6358 -71.8060 -71.8059 -71.8059  -4.8044   0.9258   1.2151   1.2151
     1.4598   1.4809   3.3859   5.3304   5.3304

          k = 0.9150-0.1307 0.9150 (  2438 PWs)   bands (ev):

  -117.6358 -71.8060 -71.8059 -71.8059  -4.6510   0.9744   1.2443   1.2636
     1.4793   1.6102   2.8882   4.7984   5.2343

          k = 0.7843 0.0000 0.7843 (  2430 PWs)   bands (ev):

  -117.6358 -71.8060 -71.8059 -71.8059  -4.6240   1.0368   1.2183   1.3252
     1.4540   1.7517   2.6914   4.1993   5.4638

          k = 0.0000-1.0457 0.0000 (  2450 PWs)   bands (ev):

  -117.6358 -71.8060 -71.8059 -71.8059  -4.6014   0.9401   1.2761   1.2761
     1.4912   1.6311   2.7323   5.0636   5.0636

          k =-0.2614 0.5229-0.0000 (  2440 PWs)   bands (ev):

  -117.6358 -71.8059 -71.8059 -71.8059  -5.1539   0.9801   1.0769   1.1043
     1.4010   1.4568   4.1140   5.5635   6.3364

          k = 0.6536-0.3922 0.9150 (  2438 PWs)   bands (ev):

  -117.6358 -71.8060 -71.8059 -71.8059  -4.8773   1.0597   1.1068   1.2499
     1.4385   1.4941   3.0992   5.0512   5.9820

          k = 0.5229-0.2614 0.7843 (  2428 PWs)   bands (ev):

  -117.6358 -71.8060 -71.8059 -71.8059  -4.7537   1.0735   1.1265   1.3742
     1.4333   1.6811   2.4469   4.9326   5.7990

          k = 0.7843-0.2614 1.0457 (  2435 PWs)   bands (ev):

  -117.6358 -71.8060 -71.8059 -71.8059  -4.7698   1.0045   1.1739   1.2462
     1.4649   1.5232   3.1967   4.9277   5.3629

          k = 0.6536-0.1307 0.9150 (  2430 PWs)   bands (ev):

  -117.6358 -71.8060 -71.8059 -71.8059  -4.6447   1.0618   1.1929   1.3323
     1.4363   1.7219   2.7357   4.4199   5.2110

          k = 0.5229 0.0000 0.7843 (  2436 PWs)   bands (ev):

  -117.6358 -71.8060 -71.8059 -71.8059  -4.6923   1.0812   1.1576   1.3641
     1.4173   1.6550   2.8235   4.3143   5.5187

          k =-0.2614-1.0457 0.0000 (  2434 PWs)   bands (ev):

  -117.6358 -71.8060 -71.8059 -71.8059  -4.5986   1.0100   1.2427   1.2952
     1.4653   1.7172   2.7280   4.8032   4.8101

          k =-0.5229-1.0457 0.0000 (  2468 PWs)   bands (ev):

  -117.6358 -71.8060 -71.8060 -71.8059  -4.5959   1.0814   1.2176   1.3697
     1.3870   1.8006   2.7228   4.5634   4.5743

     highest occupied level (ev):     7.2042

!    total energy              =    -420.90315142 Ry
     estimated scf accuracy    <          4.9E-12 Ry

     The total energy is the sum of the following terms:
     one-electron contribution =    -340.47948635 Ry
     hartree contribution      =     173.65833849 Ry
     xc contribution           =     -40.98930626 Ry
     ewald contribution        =    -213.09269730 Ry

     convergence has been achieved in  19 iterations

     Forces acting on atoms (cartesian axes, Ry/au):

     atom    1 type  1   force =    -0.00000000    0.00000000   -0.00000000
     atom    2 type  2   force =     0.00000000    0.00000000    0.00000000
     The non-local contrib.  to forces
     atom    1 type  1   force =     0.00000000   -0.00000000    0.00000000
     atom    2 type  2   force =    -0.00000000    0.00000000   -0.00000000
     The ionic contribution  to forces
     atom    1 type  1   force =     0.00000000    0.00000000    0.00000000
     atom    2 type  2   force =     0.00000000    0.00000000    0.00000000
     The local contribution  to forces
     atom    1 type  1   force =    -0.00000000    0.00000000    0.00000000
     atom    2 type  2   force =     0.00000000   -0.00000000    0.00000000
     The core correction contribution to forces
     atom    1 type  1   force =     0.00000000    0.00000000    0.00000000
     atom    2 type  2   force =     0.00000000    0.00000000    0.00000000
     The Hubbard contrib.    to forces
     atom    1 type  1   force =     0.00000000    0.00000000    0.00000000
     atom    2 type  2   force =     0.00000000    0.00000000    0.00000000
     The SCF correction term to forces
     atom    1 type  1   force =     0.00000000    0.00000000    0.00000000
     atom    2 type  2   force =    -0.00000000    0.00000000    0.00000000

     Total force =     0.000000     Total SCF correction =     0.000000


     Computing stress (Cartesian axis) and pressure

          total   stress  (Ry/bohr**3)                   (kbar)     P=        0.14
   0.00000093  -0.00000000   0.00000000            0.14       -0.00        0.00
  -0.00000000   0.00000093  -0.00000000           -0.00        0.14       -0.00
   0.00000000  -0.00000000   0.00000093            0.00       -0.00        0.14

     Energy error            =      7.1E-05 Ry
     Gradient error          =      1.2E-31 Ry/Bohr
     Cell gradient error     =      1.4E-01 kbar

     number of scf cycles    =   4
     number of bfgs steps    =   3

     enthalpy           old  =    -420.9030799632 Ry
     enthalpy           new  =    -420.9031514223 Ry

     CASE: enthalpy          _new < enthalpy          _old

     new trust radius        =       0.0002020469 bohr
     new conv_thr            =            1.0E-10 Ry

     new unit-cell volume =    271.96777 a.u.^3 (    40.30147 Ang^3 )
     density =      4.01481 g/cm^3

CELL_PARAMETERS (alat= 10.75443060)
  -0.478162002  -0.000000000   0.478162002
   0.000000000   0.478162002   0.478162002
  -0.478162002   0.478162002  -0.000000000

ATOMIC_POSITIONS (alat)
Zn           -0.0000000000        0.0000000000        0.0000000000
S             0.2390810010        0.2390810010        0.2390810010



     Writing config-only to output data dir /home/paolo/project_labqsm/ZnS_zincblende/SCRATCH/zns.save/
     NEW-OLD atomic charge density approx. for the potential
     extrapolated charge   26.00477, renormalised to   26.00000

     total cpu time spent up to now is      125.2 secs

     Self-consistent Calculation

     iteration #  1     ecut=    60.00 Ry     beta= 0.70
     Davidson diagonalization with overlap
     ethr =  1.00E-06,  avg # of iterations =  2.0

     Threshold (ethr) on eigenvalues was too large:
     Diagonalizing with lowered threshold

     Davidson diagonalization with overlap
     ethr =  4.23E-08,  avg # of iterations =  1.3

     total cpu time spent up to now is      128.0 secs

     total energy              =    -420.90313348 Ry
     estimated scf accuracy    <       0.00001239 Ry

     iteration #  2     ecut=    60.00 Ry     beta= 0.70
     Davidson diagonalization with overlap
     ethr =  4.77E-08,  avg # of iterations =  3.0

     total cpu time spent up to now is      130.1 secs

     total energy              =    -420.90315023 Ry
     estimated scf accuracy    <       0.00003690 Ry

     iteration #  3     ecut=    60.00 Ry     beta= 0.70
     Davidson diagonalization with overlap
     ethr =  4.77E-08,  avg # of iterations =  2.0

     total cpu time spent up to now is      131.7 secs

     total energy              =    -420.90315166 Ry
     estimated scf accuracy    <       0.00000609 Ry

     iteration #  4     ecut=    60.00 Ry     beta= 0.70
     Davidson diagonalization with overlap
     ethr =  2.34E-08,  avg # of iterations =  2.0

     total cpu time spent up to now is      133.1 secs

     total energy              =    -420.90315128 Ry
     estimated scf accuracy    <       0.00000194 Ry

     iteration #  5     ecut=    60.00 Ry     beta= 0.70
     Davidson diagonalization with overlap
     ethr =  7.45E-09,  avg # of iterations =  2.0

     total cpu time spent up to now is      134.7 secs

     total energy              =    -420.90315159 Ry
     estimated scf accuracy    <       0.00000026 Ry

     iteration #  6     ecut=    60.00 Ry     beta= 0.70
     Davidson diagonalization with overlap
     ethr =  9.85E-10,  avg # of iterations =  1.0

     total cpu time spent up to now is      135.9 secs

     total energy              =    -420.90315160 Ry
     estimated scf accuracy    <       0.00000040 Ry

     iteration #  7     ecut=    60.00 Ry     beta= 0.70
     Davidson diagonalization with overlap
     ethr =  9.85E-10,  avg # of iterations =  1.0

     total cpu time spent up to now is      137.2 secs

     total energy              =    -420.90315154 Ry
     estimated scf accuracy    <       0.00000041 Ry

     iteration #  8     ecut=    60.00 Ry     beta= 0.70
     Davidson diagonalization with overlap
     ethr =  9.85E-10,  avg # of iterations =  1.0

     total cpu time spent up to now is      138.4 secs

     total energy              =    -420.90315146 Ry
     estimated scf accuracy    <       0.00000027 Ry

     iteration #  9     ecut=    60.00 Ry     beta= 0.70
     Davidson diagonalization with overlap
     ethr =  9.85E-10,  avg # of iterations =  2.0

     total cpu time spent up to now is      139.8 secs

     total energy              =    -420.90315144 Ry
     estimated scf accuracy    <       0.00000008 Ry

     iteration # 10     ecut=    60.00 Ry     beta= 0.70
     Davidson diagonalization with overlap
     ethr =  3.11E-10,  avg # of iterations =  2.0

     total cpu time spent up to now is      141.3 secs

     total energy              =    -420.90315145 Ry
     estimated scf accuracy    <          6.7E-09 Ry

     iteration # 11     ecut=    60.00 Ry     beta= 0.70
     Davidson diagonalization with overlap
     ethr =  2.58E-11,  avg # of iterations =  2.2

     total cpu time spent up to now is      142.9 secs

     total energy              =    -420.90315145 Ry
     estimated scf accuracy    <          1.3E-10 Ry

     iteration # 12     ecut=    60.00 Ry     beta= 0.70
     Davidson diagonalization with overlap
     ethr =  5.05E-13,  avg # of iterations =  2.9

     total cpu time spent up to now is      144.8 secs

     total energy              =    -420.90315145 Ry
     estimated scf accuracy    <          1.5E-10 Ry

     iteration # 13     ecut=    60.00 Ry     beta= 0.70
     Davidson diagonalization with overlap
     ethr =  5.05E-13,  avg # of iterations =  1.1

     total cpu time spent up to now is      146.1 secs

     total energy              =    -420.90315145 Ry
     estimated scf accuracy    <          2.5E-10 Ry

     iteration # 14     ecut=    60.00 Ry     beta= 0.70
     Davidson diagonalization with overlap
     ethr =  5.05E-13,  avg # of iterations =  4.0

     total cpu time spent up to now is      148.6 secs

     total energy              =    -420.90315145 Ry
     estimated scf accuracy    <          4.9E-09 Ry

     iteration # 15     ecut=    60.00 Ry     beta= 0.70
     Davidson diagonalization with overlap
     ethr =  5.05E-13,  avg # of iterations =  3.0

     total cpu time spent up to now is      150.7 secs

     total energy              =    -420.90315145 Ry
     estimated scf accuracy    <          1.7E-09 Ry

     iteration # 16     ecut=    60.00 Ry     beta= 0.70
     Davidson diagonalization with overlap
     ethr =  5.05E-13,  avg # of iterations =  3.0

     total cpu time spent up to now is      152.7 secs

     total energy              =    -420.90315145 Ry
     estimated scf accuracy    <          3.7E-10 Ry

     iteration # 17     ecut=    60.00 Ry     beta= 0.70
     Davidson diagonalization with overlap
     ethr =  5.05E-13,  avg # of iterations =  2.0

     total cpu time spent up to now is      154.5 secs

     End of self-consistent calculation

          k = 0.0000 0.0000 0.0000 (  2421 PWs)   bands (ev):

  -117.6381 -71.8081 -71.8081 -71.8081  -5.7903   0.9478   0.9478   0.9478
     1.4186   1.4186   7.2016   7.2016   7.2016

          k =-0.1307 0.1307-0.1307 (  2457 PWs)   bands (ev):

  -117.6381 -71.8082 -71.8081 -71.8081  -5.6779   0.9508   0.9678   0.9678
     1.4171   1.4171   6.1014   7.0602   7.0602

          k =-0.2614 0.2614-0.2614 (  2451 PWs)   bands (ev):

  -117.6381 -71.8082 -71.8081 -71.8081  -5.3848   1.0020   1.0117   1.0117
     1.4203   1.4203   4.4211   6.7513   6.7513

          k =-0.3921 0.3921-0.3921 (  2443 PWs)   bands (ev):

  -117.6381 -71.8083 -71.8082 -71.8082  -5.0534   1.0465   1.0465   1.2193
     1.4362   1.4362   2.9355   6.4750   6.4750

          k = 0.5228-0.5228 0.5228 (  2452 PWs)   bands (ev):

  -117.6381 -71.8083 -71.8082 -71.8082  -4.9017   1.0575   1.0575   1.4474
     1.4474   1.6157   2.0548   6.3676   6.3676

          k = 0.0000 0.2614 0.0000 (  2461 PWs)   bands (ev):

  -117.6381 -71.8082 -71.8081 -71.8081  -5.6403   0.9310   0.9852   0.9852
     1.4033   1.4289   6.1375   6.8101   6.8101

          k =-0.1307 0.3921-0.1307 (  2449 PWs)   bands (ev):

  -117.6381 -71.8082 -71.8081 -71.8081  -5.4067   0.9432   1.0318   1.0335
     1.3964   1.4385   4.8807   6.4454   6.5145

          k =-0.2614 0.5228-0.2614 (  2445 PWs)   bands (ev):

  -117.6381 -71.8082 -71.8082 -71.8082  -5.0833   1.0198   1.0731   1.1383
     1.4215   1.4498   3.4336   6.1070   6.1834

          k = 0.6535-0.3921 0.6535 (  2438 PWs)   bands (ev):

  -117.6381 -71.8083 -71.8082 -71.8082  -4.8633   1.0563   1.0875   1.3744
     1.4502   1.5800   2.3354   5.7638   6.1468

          k = 0.5228-0.2614 0.5228 (  2435 PWs)   bands (ev):

  -117.6381 -71.8083 -71.8082 -71.8082  -4.9141   1.0606   1.0761   1.3361
     1.4275   1.4901   2.6355   5.6454   6.3495

          k = 0.3921-0.1307 0.3921 (  2449 PWs)   bands (ev):

  -117.6381 -71.8082 -71.8082 -71.8081  -5.1941   1.0362   1.0397   1.0708
     1.4046   1.4476   3.8905   5.8318   6.6982

          k = 0.2614 0.0000 0.2614 (  2449 PWs)   bands (ev):

  -117.6381 -71.8082 -71.8081 -71.8081  -5.5045   0.9600   0.9924   1.0095
     1.4042   1.4297   5.2406   6.3818   7.0066

          k = 0.0000 0.5228 0.0000 (  2429 PWs)   bands (ev):

  -117.6381 -71.8082 -71.8082 -71.8082  -5.2492   0.9095   1.0878   1.0878
     1.3827   1.4539   4.6609   6.0130   6.0130

          k =-0.1307 0.6535-0.1307 (  2437 PWs)   bands (ev):

  -117.6381 -71.8082 -71.8082 -71.8082  -4.9849   0.9521   1.1423   1.1564
     1.4190   1.4649   3.7466   5.5011   5.7054

          k = 0.7843-0.2614 0.7843 (  2437 PWs)   bands (ev):

  -117.6381 -71.8083 -71.8082 -71.8082  -4.7636   1.0338   1.1635   1.2751
     1.4596   1.5819   2.8224   4.8828   5.6656

          k = 0.6535-0.1307 0.6535 (  2436 PWs)   bands (ev):

  -117.6381 -71.8083 -71.8082 -71.8082  -4.7382   1.0624   1.1465   1.3725
     1.4305   1.6411   2.6245   4.5266   5.9119

          k = 0.5228 0.0000 0.5228 (  2437 PWs)   bands (ev):

  -117.6381 -71.8082 -71.8082 -71.8082  -4.9263   1.0673   1.0972   1.2289
     1.4051   1.4792   3.3220   4.7776   6.3318

          k = 0.0000 0.7843 0.0000 (  2438 PWs)   bands (ev):

  -117.6381 -71.8082 -71.8082 -71.8082  -4.8062   0.9239   1.2130   1.2130
     1.4576   1.4787   3.3838   5.3283   5.3283

          k = 0.9150-0.1307 0.9150 (  2438 PWs)   bands (ev):

  -117.6381 -71.8083 -71.8082 -71.8082  -4.6528   0.9725   1.2422   1.2614
     1.4770   1.6080   2.8862   4.7965   5.2323

          k = 0.7843 0.0000 0.7843 (  2430 PWs)   bands (ev):

  -117.6381 -71.8083 -71.8082 -71.8082  -4.6259   1.0348   1.2161   1.3230
     1.4518   1.7494   2.6896   4.1975   5.4616

          k = 0.0000-1.0457 0.0000 (  2450 PWs)   bands (ev):

  -117.6381 -71.8083 -71.8082 -71.8082  -4.6033   0.9383   1.2739   1.2739
     1.4890   1.6288   2.7304   5.0616   5.0616

          k =-0.2614 0.5228-0.0000 (  2440 PWs)   bands (ev):

  -117.6381 -71.8082 -71.8082 -71.8082  -5.1556   0.9782   1.0749   1.1022
     1.3988   1.4546   4.1117   5.5614   6.3340

          k = 0.6535-0.3921 0.9150 (  2438 PWs)   bands (ev):

  -117.6381 -71.8082 -71.8082 -71.8082  -4.8790   1.0577   1.1047   1.2479
     1.4363   1.4919   3.0972   5.0492   5.9797

          k = 0.5228-0.2614 0.7843 (  2428 PWs)   bands (ev):

  -117.6381 -71.8083 -71.8082 -71.8082  -4.7555   1.0715   1.1244   1.3721
     1.4311   1.6788   2.4452   4.9306   5.7968

          k = 0.7843-0.2614 1.0457 (  2435 PWs)   bands (ev):

  -117.6381 -71.8082 -71.8082 -71.8082  -4.7716   1.0026   1.1718   1.2440
     1.4626   1.5210   3.1947   4.9257   5.3608

          k = 0.6535-0.1307 0.9150 (  2430 PWs)   bands (ev):

  -117.6381 -71.8082 -71.8082 -71.8082  -4.6466   1.0598   1.1908   1.3302
     1.4340   1.7195   2.7339   4.4180   5.2090

          k = 0.5228 0.0000 0.7843 (  2436 PWs)   bands (ev):

  -117.6381 -71.8082 -71.8082 -71.8082  -4.6941   1.0791   1.1556   1.3619
     1.4151   1.6527   2.8216   4.3125   5.5166

          k =-0.2614-1.0457 0.0000 (  2434 PWs)   bands (ev):

  -117.6381 -71.8083 -71.8082 -71.8082  -4.6005   1.0081   1.2406   1.2931
     1.4630   1.7148   2.7261   4.8013   4.8082

          k =-0.5228-1.0457 0.0000 (  2468 PWs)   bands (ev):

  -117.6381 -71.8082 -71.8082 -71.8082  -4.5977   1.0794   1.2154   1.3675
     1.3848   1.7982   2.7210   4.5616   4.5723

     highest occupied level (ev):     7.2016

!    total energy              =    -420.90315145 Ry
     estimated scf accuracy    <          6.8E-12 Ry

     The total energy is the sum of the following terms:
     one-electron contribution =    -340.50168402 Ry
     hartree contribution      =     173.66734529 Ry
     xc contribution           =     -40.98916947 Ry
     ewald contribution        =    -213.07964325 Ry

     convergence has been achieved in  17 iterations

     Forces acting on atoms (cartesian axes, Ry/au):

     atom    1 type  1   force =     0.00000000    0.00000000    0.00000000
     atom    2 type  2   force =    -0.00000000    0.00000000   -0.00000000
     The non-local contrib.  to forces
     atom    1 type  1   force =    -0.00000000   -0.00000000    0.00000000
     atom    2 type  2   force =     0.00000000    0.00000000   -0.00000000
     The ionic contribution  to forces
     atom    1 type  1   force =     0.00000000    0.00000000    0.00000000
     atom    2 type  2   force =     0.00000000    0.00000000    0.00000000
     The local contribution  to forces
     atom    1 type  1   force =    -0.00000000    0.00000000    0.00000000
     atom    2 type  2   force =     0.00000000    0.00000000    0.00000000
     The core correction contribution to forces
     atom    1 type  1   force =     0.00000000    0.00000000    0.00000000
     atom    2 type  2   force =     0.00000000    0.00000000    0.00000000
     The Hubbard contrib.    to forces
     atom    1 type  1   force =     0.00000000    0.00000000    0.00000000
     atom    2 type  2   force =     0.00000000    0.00000000    0.00000000
     The SCF correction term to forces
     atom    1 type  1   force =     0.00000000    0.00000000   -0.00000000
     atom    2 type  2   force =     0.00000000    0.00000000   -0.00000000

     Total force =     0.000000     Total SCF correction =     0.000000


     Computing stress (Cartesian axis) and pressure

          total   stress  (Ry/bohr**3)                   (kbar)     P=        0.02
   0.00000016   0.00000000   0.00000000            0.02        0.00        0.00
   0.00000000   0.00000016  -0.00000000            0.00        0.02       -0.00
   0.00000000   0.00000000   0.00000016            0.00        0.00        0.02

     Energy error            =      2.8E-08 Ry
     Gradient error          =      1.7E-31 Ry/Bohr
     Cell gradient error     =      2.4E-02 kbar

     bfgs converged in   5 scf cycles and   4 bfgs steps
     (criteria: energy <  1.0E-05 Ry, force <  1.0E-04 Ry/Bohr, cell <  5.0E-01 kbar)

     End of BFGS Geometry Optimization

     Final enthalpy           =    -420.9031514507 Ry

     File /home/paolo/project_labqsm/ZnS_zincblende/SCRATCH/zns.bfgs deleted, as requested
Begin final coordinates
     new unit-cell volume =    271.96777 a.u.^3 (    40.30147 Ang^3 )
     density =      4.01481 g/cm^3

CELL_PARAMETERS (alat= 10.75443060)
  -0.478162002  -0.000000000   0.478162002
   0.000000000   0.478162002   0.478162002
  -0.478162002   0.478162002  -0.000000000

ATOMIC_POSITIONS (alat)
Zn           -0.0000000000        0.0000000000        0.0000000000
S             0.2390810010        0.2390810010        0.2390810010
End final coordinates



     Writing config-only to output data dir /home/paolo/project_labqsm/ZnS_zincblende/SCRATCH/zns.save/

     Final scf calculation at the relaxed structure.
     The G-vectors are recalculated for the final unit cell
     Results may differ from those at the preceding step.

     G-vector sticks info
     --------------------
     sticks:   dense  smooth     PW     G-vecs:    dense   smooth      PW
     Sum         871     871    253                16961    16961    2741

     Using Slab Decomposition



     bravais-lattice index     =            2
     lattice parameter (alat)  =      10.7544  a.u.
     unit-cell volume          =     271.9678 (a.u.)^3
     number of atoms/cell      =            2
     number of atomic types    =            2
     number of electrons       =        26.00
     number of Kohn-Sham states=           13
     kinetic-energy cutoff     =      60.0000  Ry
     charge density cutoff     =     240.0000  Ry
     scf convergence threshold =      1.0E-10
     mixing beta               =       0.7000
     number of iterations used =            8  plain     mixing
     press convergence thresh. =      5.0E-01
     Exchange-correlation= PBE
                           (   1   4   3   4   0   0   0)

     celldm(1)=  10.754431  celldm(2)=   0.000000  celldm(3)=   0.000000
     celldm(4)=   0.000000  celldm(5)=   0.000000  celldm(6)=   0.000000

     crystal axes: (cart. coord. in units of alat)
               a(1) = (  -0.478162  -0.000000   0.478162 )  
               a(2) = (   0.000000   0.478162   0.478162 )  
               a(3) = (  -0.478162   0.478162  -0.000000 )  

     reciprocal axes: (cart. coord. in units 2 pi/alat)
               b(1) = ( -1.045671 -1.045671  1.045671 )  
               b(2) = (  1.045671  1.045671  1.045671 )  
               b(3) = ( -1.045671  1.045671 -1.045671 )  


     PseudoPot. # 1 for Zn read from file:
     /home/paolo/project_labqsm/pseudopotentials/Zn_ONCV_PBE-1.2.upf
     MD5 check sum: 732f41c0cd6489a4b50a33b4ec99a2d3
     Pseudo is Norm-conserving, Zval = 20.0
     Generated using ONCVPSP code by D. R. Hamann
     Using radial grid of  602 points,  6 beta functions with: 
                l(1) =   0
                l(2) =   0
                l(3) =   1
                l(4) =   1
                l(5) =   2
                l(6) =   2

     PseudoPot. # 2 for S  read from file:
     /home/paolo/project_labqsm/pseudopotentials/S_ONCV_PBE-1.2.upf
     MD5 check sum: f9d020296ee6110346977bfd66d424f6
     Pseudo is Norm-conserving, Zval =  6.0
     Generated using ONCVPSP code by D. R. Hamann
     Using radial grid of  602 points,  4 beta functions with: 
                l(1) =   0
                l(2) =   0
                l(3) =   1
                l(4) =   1

     atomic species   valence    mass     pseudopotential
        Zn            20.00    65.38000     Zn( 1.00)
        S              6.00    32.06000     S ( 1.00)

     24 Sym. Ops. (no inversion) found



   Cartesian axes

     site n.     atom                  positions (alat units)
         1           Zn  tau(   1) = (  -0.0000000   0.0000000   0.0000000  )
         2           S   tau(   2) = (   0.2390810   0.2390810   0.2390810  )

     number of k points=    29
                       cart. coord. in units 2pi/alat
        k(    1) = (   0.0000000   0.0000000   0.0000000), wk =   0.0039062
        k(    2) = (  -0.1307088   0.1307088  -0.1307088), wk =   0.0312500
        k(    3) = (  -0.2614177   0.2614177  -0.2614177), wk =   0.0312500
        k(    4) = (  -0.3921265   0.3921265  -0.3921265), wk =   0.0312500
        k(    5) = (   0.5228354  -0.5228354   0.5228354), wk =   0.0156250
        k(    6) = (   0.0000000   0.2614177   0.0000000), wk =   0.0234375
        k(    7) = (  -0.1307088   0.3921265  -0.1307088), wk =   0.0937500
        k(    8) = (  -0.2614177   0.5228354  -0.2614177), wk =   0.0937500
        k(    9) = (   0.6535442  -0.3921265   0.6535442), wk =   0.0937500
        k(   10) = (   0.5228354  -0.2614177   0.5228354), wk =   0.0937500
        k(   11) = (   0.3921265  -0.1307088   0.3921265), wk =   0.0937500
        k(   12) = (   0.2614177   0.0000000   0.2614177), wk =   0.0468750
        k(   13) = (   0.0000000   0.5228354   0.0000000), wk =   0.0234375
        k(   14) = (  -0.1307088   0.6535442  -0.1307088), wk =   0.0937500
        k(   15) = (   0.7842530  -0.2614177   0.7842530), wk =   0.0937500
        k(   16) = (   0.6535442  -0.1307088   0.6535442), wk =   0.0937500
        k(   17) = (   0.5228354   0.0000000   0.5228354), wk =   0.0468750
        k(   18) = (   0.0000000   0.7842530   0.0000000), wk =   0.0234375
        k(   19) = (   0.9149619  -0.1307088   0.9149619), wk =   0.0937500
        k(   20) = (   0.7842530   0.0000000   0.7842530), wk =   0.0468750
        k(   21) = (   0.0000000  -1.0456707   0.0000000), wk =   0.0117188
        k(   22) = (  -0.2614177   0.5228354  -0.0000000), wk =   0.0937500
        k(   23) = (   0.6535442  -0.3921265   0.9149619), wk =   0.1875000
        k(   24) = (   0.5228354  -0.2614177   0.7842530), wk =   0.0937500
        k(   25) = (   0.7842530  -0.2614177   1.0456707), wk =   0.0937500
        k(   26) = (   0.6535442  -0.1307088   0.9149619), wk =   0.1875000
        k(   27) = (   0.5228354   0.0000000   0.7842530), wk =   0.0937500
        k(   28) = (  -0.2614177  -1.0456707   0.0000000), wk =   0.0468750
        k(   29) = (  -0.5228354  -1.0456707   0.0000000), wk =   0.0234375

     Dense  grid:    16961 G-vectors     FFT dimensions: (  36,  36,  36)

     Estimated max dynamical RAM per process >      31.32 MB

     Initial potential from superposition of free atoms

     starting charge      25.9670, renormalised to      26.0000
     Starting wfcs are random

     total cpu time spent up to now is      157.1 secs

     Self-consistent Calculation

     iteration #  1     ecut=    60.00 Ry     beta= 0.70
     Davidson diagonalization with overlap
     ethr =  1.00E-06,  avg # of iterations = 29.9

     total cpu time spent up to now is      166.3 secs

     total energy              =    -420.85130061 Ry
     estimated scf accuracy    <       0.11782666 Ry

     iteration #  2     ecut=    60.00 Ry     beta= 0.70
     Davidson diagonalization with overlap
     ethr =  4.53E-04,  avg # of iterations =  2.1

     total cpu time spent up to now is      167.4 secs

     total energy              =    -420.88975732 Ry
     estimated scf accuracy    <       0.05748504 Ry

     iteration #  3     ecut=    60.00 Ry     beta= 0.70
     Davidson diagonalization with overlap
     ethr =  2.21E-04,  avg # of iterations =  2.0

     total cpu time spent up to now is      168.5 secs

     total energy              =    -420.90001321 Ry
     estimated scf accuracy    <       0.00063741 Ry

     iteration #  4     ecut=    60.00 Ry     beta= 0.70
     Davidson diagonalization with overlap
     ethr =  2.45E-06,  avg # of iterations =  3.1

     total cpu time spent up to now is      169.7 secs

     total energy              =    -420.90020253 Ry
     estimated scf accuracy    <       0.00018747 Ry

     iteration #  5     ecut=    60.00 Ry     beta= 0.70
     Davidson diagonalization with overlap
     ethr =  7.21E-07,  avg # of iterations =  2.0

     total cpu time spent up to now is      170.8 secs

     total energy              =    -420.90023948 Ry
     estimated scf accuracy    <       0.00000094 Ry

     iteration #  6     ecut=    60.00 Ry     beta= 0.70
     Davidson diagonalization with overlap
     ethr =  3.63E-09,  avg # of iterations =  3.8

     total cpu time spent up to now is      172.2 secs

     total energy              =    -420.90023997 Ry
     estimated scf accuracy    <       0.00000028 Ry

     iteration #  7     ecut=    60.00 Ry     beta= 0.70
     Davidson diagonalization with overlap
     ethr =  1.06E-09,  avg # of iterations =  2.0

     total cpu time spent up to now is      173.3 secs

     total energy              =    -420.90023999 Ry
     estimated scf accuracy    <       0.00000010 Ry

     iteration #  8     ecut=    60.00 Ry     beta= 0.70
     Davidson diagonalization with overlap
     ethr =  3.69E-10,  avg # of iterations =  2.2

     total cpu time spent up to now is      174.5 secs

     total energy              =    -420.90024002 Ry
     estimated scf accuracy    <       0.00000002 Ry

     iteration #  9     ecut=    60.00 Ry     beta= 0.70
     Davidson diagonalization with overlap
     ethr =  6.50E-11,  avg # of iterations =  2.0

     total cpu time spent up to now is      175.5 secs

     End of self-consistent calculation

          k = 0.0000 0.0000 0.0000 (  2109 PWs)   bands (ev):

  -117.6809 -71.8358 -71.8358 -71.8358  -5.7908   0.9388   0.9388   0.9388
     1.4087   1.4087   7.2018   7.2018   7.2018

          k =-0.1307 0.1307-0.1307 (  2124 PWs)   bands (ev):

  -117.6809 -71.8358 -71.8358 -71.8358  -5.6784   0.9417   0.9587   0.9587
     1.4070   1.4070   6.1007   7.0603   7.0603

          k =-0.2614 0.2614-0.2614 (  2127 PWs)   bands (ev):

  -117.6809 -71.8358 -71.8358 -71.8358  -5.3854   0.9942   1.0026   1.0026
     1.4102   1.4102   4.4199   6.7513   6.7513

          k =-0.3921 0.3921-0.3921 (  2132 PWs)   bands (ev):

  -117.6809 -71.8359 -71.8358 -71.8358  -5.0541   1.0374   1.0374   1.2116
     1.4264   1.4264   2.9334   6.4749   6.4749

          k = 0.5228-0.5228 0.5228 (  2138 PWs)   bands (ev):

  -117.6809 -71.8359 -71.8358 -71.8358  -4.9025   1.0483   1.0483   1.4376
     1.4376   1.6054   2.0543   6.3675   6.3675

          k = 0.0000 0.2614 0.0000 (  2133 PWs)   bands (ev):

  -117.6809 -71.8358 -71.8358 -71.8358  -5.6408   0.9223   0.9756   0.9756
     1.3930   1.4190   6.1370   6.8098   6.8098

          k =-0.1307 0.3921-0.1307 (  2122 PWs)   bands (ev):

  -117.6809 -71.8358 -71.8358 -71.8358  -5.4073   0.9350   1.0227   1.0247
     1.3871   1.4284   4.8797   6.4453   6.5144

          k =-0.2614 0.5228-0.2614 (  2125 PWs)   bands (ev):

  -117.6809 -71.8359 -71.8358 -71.8358  -5.0840   1.0114   1.0642   1.1301
     1.4121   1.4398   3.4317   6.1067   6.1833

          k = 0.6535-0.3921 0.6535 (  2134 PWs)   bands (ev):

  -117.6809 -71.8359 -71.8358 -71.8358  -4.8640   1.0475   1.0784   1.3653
     1.4405   1.5705   2.3339   5.7636   6.1466

          k = 0.5228-0.2614 0.5228 (  2134 PWs)   bands (ev):

  -117.6809 -71.8359 -71.8358 -71.8358  -4.9148   1.0518   1.0669   1.3276
     1.4179   1.4805   2.6334   5.6451   6.3494

          k = 0.3921-0.1307 0.3921 (  2133 PWs)   bands (ev):

  -117.6809 -71.8359 -71.8358 -71.8358  -5.1947   1.0278   1.0304   1.0624
     1.3944   1.4373   3.8889   5.8316   6.6981

          k = 0.2614 0.0000 0.2614 (  2123 PWs)   bands (ev):

  -117.6809 -71.8358 -71.8358 -71.8358  -5.5051   0.9519   0.9830   1.0006
     1.3939   1.4200   5.2399   6.3818   7.0066

          k = 0.0000 0.5228 0.0000 (  2141 PWs)   bands (ev):

  -117.6809 -71.8358 -71.8358 -71.8358  -5.2497   0.9015   1.0783   1.0783
     1.3728   1.4430   4.6594   6.0127   6.0127

          k =-0.1307 0.6535-0.1307 (  2126 PWs)   bands (ev):

  -117.6809 -71.8359 -71.8358 -71.8358  -4.9855   0.9448   1.1330   1.1474
     1.4100   1.4546   3.7448   5.5007   5.7051

          k = 0.7843-0.2614 0.7843 (  2136 PWs)   bands (ev):

  -117.6809 -71.8359 -71.8358 -71.8358  -4.7643   1.0257   1.1540   1.2660
     1.4496   1.5725   2.8206   4.8822   5.6653

          k = 0.6535-0.1307 0.6535 (  2138 PWs)   bands (ev):

  -117.6809 -71.8359 -71.8358 -71.8358  -4.7390   1.0538   1.1372   1.3625
     1.4211   1.6321   2.6231   4.5260   5.9117

          k = 0.5228 0.0000 0.5228 (  2135 PWs)   bands (ev):

  -117.6809 -71.8359 -71.8358 -71.8358  -4.9270   1.0587   1.0876   1.2208
     1.3950   1.4696   3.3201   4.7771   6.3314

          k = 0.0000 0.7843 0.0000 (  2128 PWs)   bands (ev):

  -117.6809 -71.8359 -71.8358 -71.8358  -4.8069   0.9167   1.2037   1.2037
     1.4487   1.4686   3.3814   5.3280   5.3280

          k = 0.9150-0.1307 0.9150 (  2139 PWs)   bands (ev):

  -117.6809 -71.8359 -71.8358 -71.8358  -4.6537   0.9647   1.2327   1.2516
     1.4668   1.5992   2.8836   4.7960   5.2320

          k = 0.7843 0.0000 0.7843 (  2141 PWs)   bands (ev):

  -117.6809 -71.8359 -71.8358 -71.8358  -4.6267   1.0263   1.2066   1.3127
     1.4421   1.7399   2.6881   4.1968   5.4614

          k = 0.0000-1.0457 0.0000 (  2100 PWs)   bands (ev):

  -117.6809 -71.8359 -71.8358 -71.8358  -4.6041   0.9316   1.2654   1.2654
     1.4796   1.6224   2.7279   5.0616   5.0616

          k =-0.2614 0.5228-0.0000 (  2127 PWs)   bands (ev):

  -117.6809 -71.8358 -71.8358 -71.8358  -5.1562   0.9702   1.0661   1.0934
     1.3891   1.4445   4.1102   5.5611   6.3339

          k = 0.6535-0.3921 0.9150 (  2131 PWs)   bands (ev):

  -117.6809 -71.8359 -71.8358 -71.8358  -4.8797   1.0491   1.0957   1.2393
     1.4266   1.4827   3.0952   5.0487   5.9795

          k = 0.5228-0.2614 0.7843 (  2132 PWs)   bands (ev):

  -117.6809 -71.8359 -71.8358 -71.8358  -4.7563   1.0630   1.1153   1.3626
     1.4218   1.6695   2.4443   4.9301   5.7966

          k = 0.7843-0.2614 1.0457 (  2142 PWs)   bands (ev):

  -117.6809 -71.8359 -71.8358 -71.8358  -4.7723   0.9945   1.1625   1.2345
     1.4524   1.5114   3.1923   4.9253   5.3603

          k = 0.6535-0.1307 0.9150 (  2149 PWs)   bands (ev):

  -117.6809 -71.8359 -71.8358 -71.8358  -4.6474   1.0512   1.1810   1.3201
     1.4240   1.7099   2.7323   4.4173   5.2085

          k = 0.5228 0.0000 0.7843 (  2144 PWs)   bands (ev):

  -117.6809 -71.8359 -71.8358 -71.8358  -4.6949   1.0704   1.1462   1.3522
     1.4051   1.6434   2.8199   4.3118   5.5163

          k =-0.2614-1.0457 0.0000 (  2150 PWs)   bands (ev):

  -117.6809 -71.8359 -71.8358 -71.8358  -4.6013   0.9996   1.2307   1.2829
     1.4526   1.7058   2.7238   4.8010   4.8075

          k =-0.5228-1.0457 0.0000 (  2148 PWs)   bands (ev):

  -117.6809 -71.8359 -71.8359 -71.8358  -4.5985   1.0701   1.2057   1.3587
     1.3743   1.7886   2.7197   4.5615   4.5712

     highest occupied level (ev):     7.2018

!    total energy              =    -420.90024002 Ry
     estimated scf accuracy    <          4.4E-11 Ry

     The total energy is the sum of the following terms:
     one-electron contribution =    -340.47091210 Ry
     hartree contribution      =     173.63808353 Ry
     xc contribution           =     -40.98776815 Ry
     ewald contribution        =    -213.07964329 Ry

     convergence has been achieved in   9 iterations

     Forces acting on atoms (cartesian axes, Ry/au):

     atom    1 type  1   force =    -0.00000000   -0.00000000    0.00000000
     atom    2 type  2   force =     0.00000000    0.00000000   -0.00000000
     The non-local contrib.  to forces
     atom    1 type  1   force =     0.00000000    0.00000000    0.00000000
     atom    2 type  2   force =    -0.00000000    0.00000000   -0.00000000
     The ionic contribution  to forces
     atom    1 type  1   force =     0.00000000    0.00000000    0.00000000
     atom    2 type  2   force =     0.00000000    0.00000000   -0.00000000
     The local contribution  to forces
     atom    1 type  1   force =    -0.00000000   -0.00000000    0.00000000
     atom    2 type  2   force =     0.00000000    0.00000000   -0.00000000
     The core correction contribution to forces
     atom    1 type  1   force =     0.00000000    0.00000000    0.00000000
     atom    2 type  2   force =     0.00000000    0.00000000    0.00000000
     The Hubbard contrib.    to forces
     atom    1 type  1   force =     0.00000000    0.00000000    0.00000000
     atom    2 type  2   force =     0.00000000    0.00000000    0.00000000
     The SCF correction term to forces
     atom    1 type  1   force =     0.00000000    0.00000000   -0.00000000
     atom    2 type  2   force =     0.00000000    0.00000000   -0.00000000

     Total force =     0.000000     Total SCF correction =     0.000000


     Computing stress (Cartesian axis) and pressure

          total   stress  (Ry/bohr**3)                   (kbar)     P=      -29.17
  -0.00019826   0.00000000   0.00000000          -29.17        0.00        0.00
   0.00000000  -0.00019826   0.00000000            0.00      -29.17        0.00
  -0.00000000   0.00000000  -0.00019826           -0.00        0.00      -29.17


     Writing all to output data dir /home/paolo/project_labqsm/ZnS_zincblende/SCRATCH/zns.save/

     init_run     :      1.77s CPU      1.82s WALL (       2 calls)
     electrons    :    159.39s CPU    161.42s WALL (       6 calls)
     update_pot   :      2.81s CPU      2.83s WALL (       4 calls)
     forces       :      2.34s CPU      2.37s WALL (       6 calls)
     stress       :      7.84s CPU      8.70s WALL (       6 calls)

     Called by init_run:
     wfcinit      :      0.88s CPU      0.89s WALL (       2 calls)
     potinit      :      0.53s CPU      0.57s WALL (       2 calls)
     hinit0       :      0.33s CPU      0.34s WALL (       2 calls)

     Called by electrons:
     c_bands      :    139.56s CPU    141.39s WALL (      90 calls)
     sum_band     :     17.94s CPU     18.06s WALL (      90 calls)
     v_of_rho     :      1.56s CPU      1.83s WALL (      94 calls)
     mix_rho      :      0.31s CPU      0.22s WALL (      90 calls)

     Called by c_bands:
     init_us_2    :      2.83s CPU      2.74s WALL (    5626 calls)
     init_us_2:cp :      2.83s CPU      2.72s WALL (    5626 calls)
     cegterg      :    135.48s CPU    136.82s WALL (    2639 calls)

     Called by *egterg:
     cdiaghg      :      0.95s CPU      1.20s WALL (    9946 calls)
     h_psi        :    113.52s CPU    114.47s WALL (   10207 calls)
     g_psi        :      0.67s CPU      0.48s WALL (    7510 calls)

     Called by h_psi:
     h_psi:calbec :      7.16s CPU      6.86s WALL (   10207 calls)
     vloc_psi     :    100.62s CPU    102.25s WALL (   10207 calls)
     add_vuspsi   :      5.53s CPU      5.00s WALL (   10207 calls)

     General routines
     calbec       :      7.83s CPU      7.54s WALL (   11077 calls)
     fft          :      0.70s CPU      0.74s WALL (     988 calls)
     ffts         :      0.03s CPU      0.07s WALL (      90 calls)
     fftw         :    107.05s CPU    108.22s WALL (  247402 calls)


     PWSCF        :   2m54.17s CPU   2m57.21s WALL


   This run was terminated on:  10:47:29   8Jun2024            

=------------------------------------------------------------------------------=
   JOB DONE.
=------------------------------------------------------------------------------=
