
     Program PWSCF v.7.2 starts on 30May2024 at 18: 2:39 

     This program is part of the open-source Quantum ESPRESSO suite
     for quantum simulation of materials; please cite
         "P. Giannozzi et al., J. Phys.:Condens. Matter 21 395502 (2009);
         "P. Giannozzi et al., J. Phys.:Condens. Matter 29 465901 (2017);
         "P. Giannozzi et al., J. Chem. Phys. 152 154105 (2020);
          URL http://www.quantum-espresso.org", 
     in publications or presentations arising from this work. More details at
     http://www.quantum-espresso.org/quote

     Serial version
     8565 MiB available memory on the printing compute node when the environment starts

     Waiting for input...
     Reading input from standard input

     Current dimensions of program PWSCF are:
     Max number of different atomic species (ntypx) = 10
     Max number of k-points (npk) =  40000
     Max angular momentum in pseudopotentials (lmaxx) =  4

     Atomic positions and unit cell read from directory:
     ./SCRATCH/zns.save/



     G-vector sticks info
     --------------------
     sticks:   dense  smooth     PW     G-vecs:    dense   smooth      PW
     Sum         745     745    235                13323    13323    2277

     Using Slab Decomposition



     bravais-lattice index     =            2
     lattice parameter (alat)  =       9.4519  a.u.
     unit-cell volume          =     211.1021 (a.u.)^3
     number of atoms/cell      =            2
     number of atomic types    =            2
     number of electrons       =         8.00
     number of Kohn-Sham states=           10
     kinetic-energy cutoff     =      60.0000  Ry
     charge density cutoff     =     240.0000  Ry
     Exchange-correlation= SLA-PZ-NOGX-NOGC
                           (   1   1   0   0   0   0   0)

     celldm(1)=   9.451865  celldm(2)=   0.000000  celldm(3)=   0.000000
     celldm(4)=   0.000000  celldm(5)=   0.000000  celldm(6)=   0.000000

     crystal axes: (cart. coord. in units of alat)
               a(1) = (  -0.500000   0.000000   0.500000 )  
               a(2) = (   0.000000   0.500000   0.500000 )  
               a(3) = (  -0.500000   0.500000   0.000000 )  

     reciprocal axes: (cart. coord. in units 2 pi/alat)
               b(1) = ( -1.000000 -1.000000  1.000000 )  
               b(2) = (  1.000000  1.000000  1.000000 )  
               b(3) = ( -1.000000  1.000000 -1.000000 )  


     PseudoPot. # 1 for Zn read from file:
     /home/paolo/project_labqsm/pseudopotentials/Zn.pz-hgh.UPF
     MD5 check sum: c1979979258da2eeca1fc2dcb474678d
     Pseudo is Norm-conserving, Zval =  2.0
     Generated in analytical, separable form
     Using radial grid of 1201 points,  6 beta functions with: 
                l(1) =   0
                l(2) =   0
                l(3) =   0
                l(4) =   1
                l(5) =   1
                l(6) =   2

     PseudoPot. # 2 for S  read from file:
     /home/paolo/project_labqsm/pseudopotentials/S.pz-hgh.UPF
     MD5 check sum: a0679cb0a74c01c481c24d5fd31ffa9b
     Pseudo is Norm-conserving, Zval =  6.0
     Generated in analytical, separable form
     Using radial grid of 1151 points,  3 beta functions with: 
                l(1) =   0
                l(2) =   0
                l(3) =   1

     atomic species   valence    mass     pseudopotential
        Zn             2.00    65.38000     Zn( 1.00)
        S              6.00    32.06000     S ( 1.00)

     24 Sym. Ops. (no inversion) found


                                    s                        frac. trans.

      isym =  1     identity                                     

 cryst.   s( 1) = (     1          0          0      )
                  (     0          1          0      )
                  (     0          0          1      )

 cart.    s( 1) = (  1.0000000  0.0000000  0.0000000 )
                  (  0.0000000  1.0000000  0.0000000 )
                  (  0.0000000  0.0000000  1.0000000 )


      isym =  2     180 deg rotation - cart. axis [0,0,1]        

 cryst.   s( 2) = (     0          1         -1      )
                  (     1          0         -1      )
                  (     0          0         -1      )

 cart.    s( 2) = ( -1.0000000  0.0000000  0.0000000 )
                  (  0.0000000 -1.0000000  0.0000000 )
                  (  0.0000000  0.0000000  1.0000000 )


      isym =  3     180 deg rotation - cart. axis [0,1,0]        

 cryst.   s( 3) = (    -1          0          0      )
                  (    -1          0          1      )
                  (    -1          1          0      )

 cart.    s( 3) = ( -1.0000000  0.0000000  0.0000000 )
                  (  0.0000000  1.0000000  0.0000000 )
                  (  0.0000000  0.0000000 -1.0000000 )


      isym =  4     180 deg rotation - cart. axis [1,0,0]        

 cryst.   s( 4) = (     0         -1          1      )
                  (     0         -1          0      )
                  (     1         -1          0      )

 cart.    s( 4) = (  1.0000000  0.0000000  0.0000000 )
                  (  0.0000000 -1.0000000  0.0000000 )
                  (  0.0000000  0.0000000 -1.0000000 )


      isym =  5     120 deg rotation - cart. axis [-1,-1,-1]     

 cryst.   s( 5) = (    -1          0          1      )
                  (    -1          1          0      )
                  (    -1          0          0      )

 cart.    s( 5) = (  0.0000000  1.0000000  0.0000000 )
                  (  0.0000000  0.0000000  1.0000000 )
                  (  1.0000000  0.0000000  0.0000000 )


      isym =  6     120 deg rotation - cart. axis [-1,1,1]       

 cryst.   s( 6) = (     0          1          0      )
                  (     0          0          1      )
                  (     1          0          0      )

 cart.    s( 6) = (  0.0000000 -1.0000000  0.0000000 )
                  (  0.0000000  0.0000000  1.0000000 )
                  ( -1.0000000  0.0000000  0.0000000 )


      isym =  7     120 deg rotation - cart. axis [1,1,-1]       

 cryst.   s( 7) = (     1          0         -1      )
                  (     0          0         -1      )
                  (     0          1         -1      )

 cart.    s( 7) = (  0.0000000  1.0000000  0.0000000 )
                  (  0.0000000  0.0000000 -1.0000000 )
                  ( -1.0000000  0.0000000  0.0000000 )


      isym =  8     120 deg rotation - cart. axis [1,-1,1]       

 cryst.   s( 8) = (     0         -1          0      )
                  (     1         -1          0      )
                  (     0         -1          1      )

 cart.    s( 8) = (  0.0000000 -1.0000000  0.0000000 )
                  (  0.0000000  0.0000000 -1.0000000 )
                  (  1.0000000  0.0000000  0.0000000 )


      isym =  9     120 deg rotation - cart. axis [1,1,1]        

 cryst.   s( 9) = (     0          0         -1      )
                  (     0          1         -1      )
                  (     1          0         -1      )

 cart.    s( 9) = (  0.0000000  0.0000000  1.0000000 )
                  (  1.0000000  0.0000000  0.0000000 )
                  (  0.0000000  1.0000000  0.0000000 )


      isym = 10     120 deg rotation - cart. axis [-1,1,-1]      

 cryst.   s(10) = (    -1          1          0      )
                  (    -1          0          0      )
                  (    -1          0          1      )

 cart.    s(10) = (  0.0000000  0.0000000  1.0000000 )
                  ( -1.0000000  0.0000000  0.0000000 )
                  (  0.0000000 -1.0000000  0.0000000 )


      isym = 11     120 deg rotation - cart. axis [1,-1,-1]      

 cryst.   s(11) = (     0          0          1      )
                  (     1          0          0      )
                  (     0          1          0      )

 cart.    s(11) = (  0.0000000  0.0000000 -1.0000000 )
                  ( -1.0000000  0.0000000  0.0000000 )
                  (  0.0000000  1.0000000  0.0000000 )


      isym = 12     120 deg rotation - cart. axis [-1,-1,1]      

 cryst.   s(12) = (     1         -1          0      )
                  (     0         -1          1      )
                  (     0         -1          0      )

 cart.    s(12) = (  0.0000000  0.0000000 -1.0000000 )
                  (  1.0000000  0.0000000  0.0000000 )
                  (  0.0000000 -1.0000000  0.0000000 )


      isym = 13     inv. 180 deg rotation - cart. axis [1,1,0]   

 cryst.   s(13) = (     0          1          0      )
                  (     1          0          0      )
                  (     0          0          1      )

 cart.    s(13) = (  0.0000000 -1.0000000  0.0000000 )
                  ( -1.0000000  0.0000000  0.0000000 )
                  (  0.0000000  0.0000000  1.0000000 )


      isym = 14     inv. 180 deg rotation - cart. axis [1,-1,0]  

 cryst.   s(14) = (     1          0         -1      )
                  (     0          1         -1      )
                  (     0          0         -1      )

 cart.    s(14) = (  0.0000000  1.0000000  0.0000000 )
                  (  1.0000000  0.0000000  0.0000000 )
                  (  0.0000000  0.0000000  1.0000000 )


      isym = 15     inv.  90 deg rotation - cart. axis [0,0,-1]  

 cryst.   s(15) = (     0         -1          0      )
                  (     0         -1          1      )
                  (     1         -1          0      )

 cart.    s(15) = (  0.0000000 -1.0000000  0.0000000 )
                  (  1.0000000  0.0000000  0.0000000 )
                  (  0.0000000  0.0000000 -1.0000000 )


      isym = 16     inv.  90 deg rotation - cart. axis [0,0,1]   

 cryst.   s(16) = (    -1          0          1      )
                  (    -1          0          0      )
                  (    -1          1          0      )

 cart.    s(16) = (  0.0000000  1.0000000  0.0000000 )
                  ( -1.0000000  0.0000000  0.0000000 )
                  (  0.0000000  0.0000000 -1.0000000 )


      isym = 17     inv. 180 deg rotation - cart. axis [1,0,1]   

 cryst.   s(17) = (     1          0          0      )
                  (     0          0          1      )
                  (     0          1          0      )

 cart.    s(17) = (  0.0000000  0.0000000 -1.0000000 )
                  (  0.0000000  1.0000000  0.0000000 )
                  ( -1.0000000  0.0000000  0.0000000 )


      isym = 18     inv. 180 deg rotation - cart. axis [-1,0,1]  

 cryst.   s(18) = (    -1          0          0      )
                  (    -1          1          0      )
                  (    -1          0          1      )

 cart.    s(18) = (  0.0000000  0.0000000  1.0000000 )
                  (  0.0000000  1.0000000  0.0000000 )
                  (  1.0000000  0.0000000  0.0000000 )


      isym = 19     inv.  90 deg rotation - cart. axis [0,1,0]   

 cryst.   s(19) = (     0         -1          1      )
                  (     1         -1          0      )
                  (     0         -1          0      )

 cart.    s(19) = (  0.0000000  0.0000000 -1.0000000 )
                  (  0.0000000 -1.0000000  0.0000000 )
                  (  1.0000000  0.0000000  0.0000000 )


      isym = 20     inv.  90 deg rotation - cart. axis [0,-1,0]  

 cryst.   s(20) = (     0          1         -1      )
                  (     0          0         -1      )
                  (     1          0         -1      )

 cart.    s(20) = (  0.0000000  0.0000000  1.0000000 )
                  (  0.0000000 -1.0000000  0.0000000 )
                  ( -1.0000000  0.0000000  0.0000000 )


      isym = 21     inv. 180 deg rotation - cart. axis [0,1,1]   

 cryst.   s(21) = (     1         -1          0      )
                  (     0         -1          0      )
                  (     0         -1          1      )

 cart.    s(21) = (  1.0000000  0.0000000  0.0000000 )
                  (  0.0000000  0.0000000 -1.0000000 )
                  (  0.0000000 -1.0000000  0.0000000 )


      isym = 22     inv. 180 deg rotation - cart. axis [0,1,-1]  

 cryst.   s(22) = (     0          0          1      )
                  (     0          1          0      )
                  (     1          0          0      )

 cart.    s(22) = (  1.0000000  0.0000000  0.0000000 )
                  (  0.0000000  0.0000000  1.0000000 )
                  (  0.0000000  1.0000000  0.0000000 )


      isym = 23     inv.  90 deg rotation - cart. axis [-1,0,0]  

 cryst.   s(23) = (     0          0         -1      )
                  (     1          0         -1      )
                  (     0          1         -1      )

 cart.    s(23) = ( -1.0000000  0.0000000  0.0000000 )
                  (  0.0000000  0.0000000 -1.0000000 )
                  (  0.0000000  1.0000000  0.0000000 )


      isym = 24     inv.  90 deg rotation - cart. axis [1,0,0]   

 cryst.   s(24) = (    -1          1          0      )
                  (    -1          0          1      )
                  (    -1          0          0      )

 cart.    s(24) = ( -1.0000000  0.0000000  0.0000000 )
                  (  0.0000000  0.0000000  1.0000000 )
                  (  0.0000000 -1.0000000  0.0000000 )


     point group T_d (-43m) 
     there are  5 classes
     the character table:

       E     8C3   3C2   6S4   6s_d 
A_1    1.00  1.00  1.00  1.00  1.00
A_2    1.00  1.00  1.00 -1.00 -1.00
E      2.00 -1.00  2.00  0.00  0.00
T_1    3.00  0.00 -1.00  1.00 -1.00
T_2    3.00  0.00 -1.00 -1.00  1.00

     the symmetry operations in each class and the name of the first element:

     E        1
          identity                                               
     8C3      5    7    8    6   12    9   10   11
          120 deg rotation - cart. axis [-1,-1,-1]               
     3C2      2    3    4
          180 deg rotation - cart. axis [0,0,1]                  
     6S4     15   16   20   19   23   24
          inv.  90 deg rotation - cart. axis [0,0,-1]            
     6s_d    13   14   17   18   21   22
          inv. 180 deg rotation - cart. axis [1,1,0]             

   Cartesian axes

     site n.     atom                  positions (alat units)
         1           Zn  tau(   1) = (   0.0000000   0.0000000   0.0000000  )
         2           S   tau(   2) = (   0.2500000   0.2500000   0.2500000  )

   Crystallographic axes

     site n.     atom                  positions (cryst. coord.)
         1           Zn  tau(   1) = (  0.0000000  0.0000000  0.0000000  )
         2           S   tau(   2) = ( -0.2500000  0.7500000 -0.2500000  )

     number of k points=   256
                       cart. coord. in units 2pi/alat
        k(    1) = (   0.0000000   0.0000000   0.0000000), wk =   0.0002500
        k(    2) = (  -0.0500000   0.0500000  -0.0500000), wk =   0.0020000
        k(    3) = (  -0.1000000   0.1000000  -0.1000000), wk =   0.0020000
        k(    4) = (  -0.1500000   0.1500000  -0.1500000), wk =   0.0020000
        k(    5) = (  -0.2000000   0.2000000  -0.2000000), wk =   0.0020000
        k(    6) = (  -0.2500000   0.2500000  -0.2500000), wk =   0.0020000
        k(    7) = (  -0.3000000   0.3000000  -0.3000000), wk =   0.0020000
        k(    8) = (  -0.3500000   0.3500000  -0.3500000), wk =   0.0020000
        k(    9) = (  -0.4000000   0.4000000  -0.4000000), wk =   0.0020000
        k(   10) = (  -0.4500000   0.4500000  -0.4500000), wk =   0.0020000
        k(   11) = (   0.5000000  -0.5000000   0.5000000), wk =   0.0010000
        k(   12) = (   0.0000000   0.1000000   0.0000000), wk =   0.0015000
        k(   13) = (  -0.0500000   0.1500000  -0.0500000), wk =   0.0060000
        k(   14) = (  -0.1000000   0.2000000  -0.1000000), wk =   0.0060000
        k(   15) = (  -0.1500000   0.2500000  -0.1500000), wk =   0.0060000
        k(   16) = (  -0.2000000   0.3000000  -0.2000000), wk =   0.0060000
        k(   17) = (  -0.2500000   0.3500000  -0.2500000), wk =   0.0060000
        k(   18) = (  -0.3000000   0.4000000  -0.3000000), wk =   0.0060000
        k(   19) = (  -0.3500000   0.4500000  -0.3500000), wk =   0.0060000
        k(   20) = (  -0.4000000   0.5000000  -0.4000000), wk =   0.0060000
        k(   21) = (   0.5500000  -0.4500000   0.5500000), wk =   0.0060000
        k(   22) = (   0.5000000  -0.4000000   0.5000000), wk =   0.0060000
        k(   23) = (   0.4500000  -0.3500000   0.4500000), wk =   0.0060000
        k(   24) = (   0.4000000  -0.3000000   0.4000000), wk =   0.0060000
        k(   25) = (   0.3500000  -0.2500000   0.3500000), wk =   0.0060000
        k(   26) = (   0.3000000  -0.2000000   0.3000000), wk =   0.0060000
        k(   27) = (   0.2500000  -0.1500000   0.2500000), wk =   0.0060000
        k(   28) = (   0.2000000  -0.1000000   0.2000000), wk =   0.0060000
        k(   29) = (   0.1500000  -0.0500000   0.1500000), wk =   0.0060000
        k(   30) = (   0.1000000  -0.0000000   0.1000000), wk =   0.0030000
        k(   31) = (   0.0000000   0.2000000   0.0000000), wk =   0.0015000
        k(   32) = (  -0.0500000   0.2500000  -0.0500000), wk =   0.0060000
        k(   33) = (  -0.1000000   0.3000000  -0.1000000), wk =   0.0060000
        k(   34) = (  -0.1500000   0.3500000  -0.1500000), wk =   0.0060000
        k(   35) = (  -0.2000000   0.4000000  -0.2000000), wk =   0.0060000
        k(   36) = (  -0.2500000   0.4500000  -0.2500000), wk =   0.0060000
        k(   37) = (  -0.3000000   0.5000000  -0.3000000), wk =   0.0060000
        k(   38) = (  -0.3500000   0.5500000  -0.3500000), wk =   0.0060000
        k(   39) = (   0.6000000  -0.4000000   0.6000000), wk =   0.0060000
        k(   40) = (   0.5500000  -0.3500000   0.5500000), wk =   0.0060000
        k(   41) = (   0.5000000  -0.3000000   0.5000000), wk =   0.0060000
        k(   42) = (   0.4500000  -0.2500000   0.4500000), wk =   0.0060000
        k(   43) = (   0.4000000  -0.2000000   0.4000000), wk =   0.0060000
        k(   44) = (   0.3500000  -0.1500000   0.3500000), wk =   0.0060000
        k(   45) = (   0.3000000  -0.1000000   0.3000000), wk =   0.0060000
        k(   46) = (   0.2500000  -0.0500000   0.2500000), wk =   0.0060000
        k(   47) = (   0.2000000   0.0000000   0.2000000), wk =   0.0030000
        k(   48) = (   0.0000000   0.3000000   0.0000000), wk =   0.0015000
        k(   49) = (  -0.0500000   0.3500000  -0.0500000), wk =   0.0060000
        k(   50) = (  -0.1000000   0.4000000  -0.1000000), wk =   0.0060000
        k(   51) = (  -0.1500000   0.4500000  -0.1500000), wk =   0.0060000
        k(   52) = (  -0.2000000   0.5000000  -0.2000000), wk =   0.0060000
        k(   53) = (  -0.2500000   0.5500000  -0.2500000), wk =   0.0060000
        k(   54) = (  -0.3000000   0.6000000  -0.3000000), wk =   0.0060000
        k(   55) = (   0.6500000  -0.3500000   0.6500000), wk =   0.0060000
        k(   56) = (   0.6000000  -0.3000000   0.6000000), wk =   0.0060000
        k(   57) = (   0.5500000  -0.2500000   0.5500000), wk =   0.0060000
        k(   58) = (   0.5000000  -0.2000000   0.5000000), wk =   0.0060000
        k(   59) = (   0.4500000  -0.1500000   0.4500000), wk =   0.0060000
        k(   60) = (   0.4000000  -0.1000000   0.4000000), wk =   0.0060000
        k(   61) = (   0.3500000  -0.0500000   0.3500000), wk =   0.0060000
        k(   62) = (   0.3000000  -0.0000000   0.3000000), wk =   0.0030000
        k(   63) = (   0.0000000   0.4000000   0.0000000), wk =   0.0015000
        k(   64) = (  -0.0500000   0.4500000  -0.0500000), wk =   0.0060000
        k(   65) = (  -0.1000000   0.5000000  -0.1000000), wk =   0.0060000
        k(   66) = (  -0.1500000   0.5500000  -0.1500000), wk =   0.0060000
        k(   67) = (  -0.2000000   0.6000000  -0.2000000), wk =   0.0060000
        k(   68) = (  -0.2500000   0.6500000  -0.2500000), wk =   0.0060000
        k(   69) = (   0.7000000  -0.3000000   0.7000000), wk =   0.0060000
        k(   70) = (   0.6500000  -0.2500000   0.6500000), wk =   0.0060000
        k(   71) = (   0.6000000  -0.2000000   0.6000000), wk =   0.0060000
        k(   72) = (   0.5500000  -0.1500000   0.5500000), wk =   0.0060000
        k(   73) = (   0.5000000  -0.1000000   0.5000000), wk =   0.0060000
        k(   74) = (   0.4500000  -0.0500000   0.4500000), wk =   0.0060000
        k(   75) = (   0.4000000   0.0000000   0.4000000), wk =   0.0030000
        k(   76) = (   0.0000000   0.5000000   0.0000000), wk =   0.0015000
        k(   77) = (  -0.0500000   0.5500000  -0.0500000), wk =   0.0060000
        k(   78) = (  -0.1000000   0.6000000  -0.1000000), wk =   0.0060000
        k(   79) = (  -0.1500000   0.6500000  -0.1500000), wk =   0.0060000
        k(   80) = (  -0.2000000   0.7000000  -0.2000000), wk =   0.0060000
        k(   81) = (   0.7500000  -0.2500000   0.7500000), wk =   0.0060000
        k(   82) = (   0.7000000  -0.2000000   0.7000000), wk =   0.0060000
        k(   83) = (   0.6500000  -0.1500000   0.6500000), wk =   0.0060000
        k(   84) = (   0.6000000  -0.1000000   0.6000000), wk =   0.0060000
        k(   85) = (   0.5500000  -0.0500000   0.5500000), wk =   0.0060000
        k(   86) = (   0.5000000   0.0000000   0.5000000), wk =   0.0030000
        k(   87) = (   0.0000000   0.6000000   0.0000000), wk =   0.0015000
        k(   88) = (  -0.0500000   0.6500000  -0.0500000), wk =   0.0060000
        k(   89) = (  -0.1000000   0.7000000  -0.1000000), wk =   0.0060000
        k(   90) = (  -0.1500000   0.7500000  -0.1500000), wk =   0.0060000
        k(   91) = (   0.8000000  -0.2000000   0.8000000), wk =   0.0060000
        k(   92) = (   0.7500000  -0.1500000   0.7500000), wk =   0.0060000
        k(   93) = (   0.7000000  -0.1000000   0.7000000), wk =   0.0060000
        k(   94) = (   0.6500000  -0.0500000   0.6500000), wk =   0.0060000
        k(   95) = (   0.6000000  -0.0000000   0.6000000), wk =   0.0030000
        k(   96) = (   0.0000000   0.7000000   0.0000000), wk =   0.0015000
        k(   97) = (  -0.0500000   0.7500000  -0.0500000), wk =   0.0060000
        k(   98) = (  -0.1000000   0.8000000  -0.1000000), wk =   0.0060000
        k(   99) = (   0.8500000  -0.1500000   0.8500000), wk =   0.0060000
        k(  100) = (   0.8000000  -0.1000000   0.8000000), wk =   0.0060000
        k(  101) = (   0.7500000  -0.0500000   0.7500000), wk =   0.0060000
        k(  102) = (   0.7000000   0.0000000   0.7000000), wk =   0.0030000
        k(  103) = (   0.0000000   0.8000000   0.0000000), wk =   0.0015000
        k(  104) = (  -0.0500000   0.8500000  -0.0500000), wk =   0.0060000
        k(  105) = (   0.9000000  -0.1000000   0.9000000), wk =   0.0060000
        k(  106) = (   0.8500000  -0.0500000   0.8500000), wk =   0.0060000
        k(  107) = (   0.8000000   0.0000000   0.8000000), wk =   0.0030000
        k(  108) = (   0.0000000   0.9000000   0.0000000), wk =   0.0015000
        k(  109) = (   0.9500000  -0.0500000   0.9500000), wk =   0.0060000
        k(  110) = (   0.9000000   0.0000000   0.9000000), wk =   0.0030000
        k(  111) = (   0.0000000  -1.0000000   0.0000000), wk =   0.0007500
        k(  112) = (  -0.1000000   0.2000000   0.0000000), wk =   0.0060000
        k(  113) = (  -0.1500000   0.2500000  -0.0500000), wk =   0.0120000
        k(  114) = (  -0.2000000   0.3000000  -0.1000000), wk =   0.0120000
        k(  115) = (  -0.2500000   0.3500000  -0.1500000), wk =   0.0120000
        k(  116) = (  -0.3000000   0.4000000  -0.2000000), wk =   0.0120000
        k(  117) = (  -0.3500000   0.4500000  -0.2500000), wk =   0.0120000
        k(  118) = (  -0.4000000   0.5000000  -0.3000000), wk =   0.0120000
        k(  119) = (   0.5500000  -0.4500000   0.6500000), wk =   0.0120000
        k(  120) = (   0.5000000  -0.4000000   0.6000000), wk =   0.0060000
        k(  121) = (  -0.1000000   0.3000000   0.0000000), wk =   0.0060000
        k(  122) = (  -0.1500000   0.3500000  -0.0500000), wk =   0.0120000
        k(  123) = (  -0.2000000   0.4000000  -0.1000000), wk =   0.0120000
        k(  124) = (  -0.2500000   0.4500000  -0.1500000), wk =   0.0120000
        k(  125) = (  -0.3000000   0.5000000  -0.2000000), wk =   0.0120000
        k(  126) = (  -0.3500000   0.5500000  -0.2500000), wk =   0.0120000
        k(  127) = (   0.6000000  -0.4000000   0.7000000), wk =   0.0120000
        k(  128) = (   0.5500000  -0.3500000   0.6500000), wk =   0.0120000
        k(  129) = (   0.5000000  -0.3000000   0.6000000), wk =   0.0120000
        k(  130) = (   0.4500000  -0.2500000   0.5500000), wk =   0.0120000
        k(  131) = (   0.4000000  -0.2000000   0.5000000), wk =   0.0120000
        k(  132) = (   0.3500000  -0.1500000   0.4500000), wk =   0.0120000
        k(  133) = (   0.3000000  -0.1000000   0.4000000), wk =   0.0120000
        k(  134) = (   0.2500000  -0.0500000   0.3500000), wk =   0.0120000
        k(  135) = (   0.2000000   0.0000000   0.3000000), wk =   0.0060000
        k(  136) = (  -0.1000000   0.4000000   0.0000000), wk =   0.0060000
        k(  137) = (  -0.1500000   0.4500000  -0.0500000), wk =   0.0120000
        k(  138) = (  -0.2000000   0.5000000  -0.1000000), wk =   0.0120000
        k(  139) = (  -0.2500000   0.5500000  -0.1500000), wk =   0.0120000
        k(  140) = (  -0.3000000   0.6000000  -0.2000000), wk =   0.0120000
        k(  141) = (   0.6500000  -0.3500000   0.7500000), wk =   0.0120000
        k(  142) = (   0.6000000  -0.3000000   0.7000000), wk =   0.0120000
        k(  143) = (   0.5500000  -0.2500000   0.6500000), wk =   0.0120000
        k(  144) = (   0.5000000  -0.2000000   0.6000000), wk =   0.0120000
        k(  145) = (   0.4500000  -0.1500000   0.5500000), wk =   0.0120000
        k(  146) = (   0.4000000  -0.1000000   0.5000000), wk =   0.0120000
        k(  147) = (   0.3500000  -0.0500000   0.4500000), wk =   0.0120000
        k(  148) = (   0.3000000   0.0000000   0.4000000), wk =   0.0060000
        k(  149) = (  -0.1000000   0.5000000   0.0000000), wk =   0.0060000
        k(  150) = (  -0.1500000   0.5500000  -0.0500000), wk =   0.0120000
        k(  151) = (  -0.2000000   0.6000000  -0.1000000), wk =   0.0120000
        k(  152) = (  -0.2500000   0.6500000  -0.1500000), wk =   0.0120000
        k(  153) = (   0.7000000  -0.3000000   0.8000000), wk =   0.0120000
        k(  154) = (   0.6500000  -0.2500000   0.7500000), wk =   0.0120000
        k(  155) = (   0.6000000  -0.2000000   0.7000000), wk =   0.0120000
        k(  156) = (   0.5500000  -0.1500000   0.6500000), wk =   0.0120000
        k(  157) = (   0.5000000  -0.1000000   0.6000000), wk =   0.0120000
        k(  158) = (   0.4500000  -0.0500000   0.5500000), wk =   0.0120000
        k(  159) = (   0.4000000   0.0000000   0.5000000), wk =   0.0060000
        k(  160) = (  -0.1000000   0.6000000   0.0000000), wk =   0.0060000
        k(  161) = (  -0.1500000   0.6500000  -0.0500000), wk =   0.0120000
        k(  162) = (  -0.2000000   0.7000000  -0.1000000), wk =   0.0120000
        k(  163) = (   0.7500000  -0.2500000   0.8500000), wk =   0.0120000
        k(  164) = (   0.7000000  -0.2000000   0.8000000), wk =   0.0120000
        k(  165) = (   0.6500000  -0.1500000   0.7500000), wk =   0.0120000
        k(  166) = (   0.6000000  -0.1000000   0.7000000), wk =   0.0120000
        k(  167) = (   0.5500000  -0.0500000   0.6500000), wk =   0.0120000
        k(  168) = (   0.5000000   0.0000000   0.6000000), wk =   0.0060000
        k(  169) = (  -0.1000000   0.7000000  -0.0000000), wk =   0.0060000
        k(  170) = (  -0.1500000   0.7500000  -0.0500000), wk =   0.0120000
        k(  171) = (   0.8000000  -0.2000000   0.9000000), wk =   0.0120000
        k(  172) = (   0.7500000  -0.1500000   0.8500000), wk =   0.0120000
        k(  173) = (   0.7000000  -0.1000000   0.8000000), wk =   0.0120000
        k(  174) = (   0.6500000  -0.0500000   0.7500000), wk =   0.0120000
        k(  175) = (   0.6000000  -0.0000000   0.7000000), wk =   0.0060000
        k(  176) = (  -0.1000000   0.8000000   0.0000000), wk =   0.0060000
        k(  177) = (   0.8500000  -0.1500000   0.9500000), wk =   0.0120000
        k(  178) = (   0.8000000  -0.1000000   0.9000000), wk =   0.0120000
        k(  179) = (   0.7500000  -0.0500000   0.8500000), wk =   0.0120000
        k(  180) = (   0.7000000   0.0000000   0.8000000), wk =   0.0060000
        k(  181) = (   0.9000000  -0.1000000   1.0000000), wk =   0.0060000
        k(  182) = (   0.8500000  -0.0500000   0.9500000), wk =   0.0120000
        k(  183) = (   0.8000000   0.0000000   0.9000000), wk =   0.0060000
        k(  184) = (  -0.1000000  -1.0000000  -0.0000000), wk =   0.0030000
        k(  185) = (  -0.2000000   0.4000000   0.0000000), wk =   0.0060000
        k(  186) = (  -0.2500000   0.4500000  -0.0500000), wk =   0.0120000
        k(  187) = (  -0.3000000   0.5000000  -0.1000000), wk =   0.0120000
        k(  188) = (  -0.3500000   0.5500000  -0.1500000), wk =   0.0120000
        k(  189) = (   0.6000000  -0.4000000   0.8000000), wk =   0.0120000
        k(  190) = (   0.5500000  -0.3500000   0.7500000), wk =   0.0120000
        k(  191) = (   0.5000000  -0.3000000   0.7000000), wk =   0.0060000
        k(  192) = (  -0.2000000   0.5000000   0.0000000), wk =   0.0060000
        k(  193) = (  -0.2500000   0.5500000  -0.0500000), wk =   0.0120000
        k(  194) = (  -0.3000000   0.6000000  -0.1000000), wk =   0.0120000
        k(  195) = (   0.6500000  -0.3500000   0.8500000), wk =   0.0120000
        k(  196) = (   0.6000000  -0.3000000   0.8000000), wk =   0.0120000
        k(  197) = (   0.5500000  -0.2500000   0.7500000), wk =   0.0120000
        k(  198) = (   0.5000000  -0.2000000   0.7000000), wk =   0.0120000
        k(  199) = (   0.4500000  -0.1500000   0.6500000), wk =   0.0120000
        k(  200) = (   0.4000000  -0.1000000   0.6000000), wk =   0.0120000
        k(  201) = (   0.3500000  -0.0500000   0.5500000), wk =   0.0120000
        k(  202) = (   0.3000000  -0.0000000   0.5000000), wk =   0.0060000
        k(  203) = (  -0.2000000   0.6000000   0.0000000), wk =   0.0060000
        k(  204) = (  -0.2500000   0.6500000  -0.0500000), wk =   0.0120000
        k(  205) = (   0.7000000  -0.3000000   0.9000000), wk =   0.0120000
        k(  206) = (   0.6500000  -0.2500000   0.8500000), wk =   0.0120000
        k(  207) = (   0.6000000  -0.2000000   0.8000000), wk =   0.0120000
        k(  208) = (   0.5500000  -0.1500000   0.7500000), wk =   0.0120000
        k(  209) = (   0.5000000  -0.1000000   0.7000000), wk =   0.0120000
        k(  210) = (   0.4500000  -0.0500000   0.6500000), wk =   0.0120000
        k(  211) = (   0.4000000   0.0000000   0.6000000), wk =   0.0060000
        k(  212) = (  -0.2000000   0.7000000  -0.0000000), wk =   0.0060000
        k(  213) = (   0.7500000  -0.2500000   0.9500000), wk =   0.0120000
        k(  214) = (   0.7000000  -0.2000000   0.9000000), wk =   0.0120000
        k(  215) = (   0.6500000  -0.1500000   0.8500000), wk =   0.0120000
        k(  216) = (   0.6000000  -0.1000000   0.8000000), wk =   0.0120000
        k(  217) = (   0.5500000  -0.0500000   0.7500000), wk =   0.0120000
        k(  218) = (   0.5000000  -0.0000000   0.7000000), wk =   0.0060000
        k(  219) = (   0.8000000  -0.2000000   1.0000000), wk =   0.0060000
        k(  220) = (   0.7500000  -0.1500000   0.9500000), wk =   0.0120000
        k(  221) = (   0.7000000  -0.1000000   0.9000000), wk =   0.0120000
        k(  222) = (   0.6500000  -0.0500000   0.8500000), wk =   0.0120000
        k(  223) = (   0.6000000   0.0000000   0.8000000), wk =   0.0060000
        k(  224) = (   0.8000000  -0.1000000   1.0000000), wk =   0.0060000
        k(  225) = (   0.7500000  -0.0500000   0.9500000), wk =   0.0120000
        k(  226) = (   0.7000000   0.0000000   0.9000000), wk =   0.0060000
        k(  227) = (  -0.2000000  -1.0000000   0.0000000), wk =   0.0030000
        k(  228) = (  -0.3000000   0.6000000  -0.0000000), wk =   0.0060000
        k(  229) = (   0.6500000  -0.3500000   0.9500000), wk =   0.0120000
        k(  230) = (   0.6000000  -0.3000000   0.9000000), wk =   0.0120000
        k(  231) = (   0.5500000  -0.2500000   0.8500000), wk =   0.0120000
        k(  232) = (   0.5000000  -0.2000000   0.8000000), wk =   0.0060000
        k(  233) = (   0.7000000  -0.3000000   1.0000000), wk =   0.0060000
        k(  234) = (   0.6500000  -0.2500000   0.9500000), wk =   0.0120000
        k(  235) = (   0.6000000  -0.2000000   0.9000000), wk =   0.0120000
        k(  236) = (   0.5500000  -0.1500000   0.8500000), wk =   0.0120000
        k(  237) = (   0.5000000  -0.1000000   0.8000000), wk =   0.0120000
        k(  238) = (   0.4500000  -0.0500000   0.7500000), wk =   0.0120000
        k(  239) = (   0.4000000   0.0000000   0.7000000), wk =   0.0060000
        k(  240) = (   0.7000000  -0.2000000   1.0000000), wk =   0.0060000
        k(  241) = (   0.6500000  -0.1500000   0.9500000), wk =   0.0120000
        k(  242) = (   0.6000000  -0.1000000   0.9000000), wk =   0.0120000
        k(  243) = (   0.5500000  -0.0500000   0.8500000), wk =   0.0120000
        k(  244) = (   0.5000000   0.0000000   0.8000000), wk =   0.0060000
        k(  245) = (   0.7000000  -0.1000000   1.0000000), wk =   0.0060000
        k(  246) = (   0.6500000  -0.0500000   0.9500000), wk =   0.0120000
        k(  247) = (   0.6000000   0.0000000   0.9000000), wk =   0.0060000
        k(  248) = (  -0.3000000  -1.0000000   0.0000000), wk =   0.0030000
        k(  249) = (   0.6000000  -0.2000000   1.0000000), wk =   0.0060000
        k(  250) = (   0.5500000  -0.1500000   0.9500000), wk =   0.0120000
        k(  251) = (   0.5000000  -0.1000000   0.9000000), wk =   0.0060000
        k(  252) = (   0.6000000  -0.1000000   1.0000000), wk =   0.0060000
        k(  253) = (   0.5500000  -0.0500000   0.9500000), wk =   0.0120000
        k(  254) = (   0.5000000   0.0000000   0.9000000), wk =   0.0060000
        k(  255) = (  -0.4000000  -1.0000000   0.0000000), wk =   0.0030000
        k(  256) = (  -0.5000000  -1.0000000   0.0000000), wk =   0.0015000

                       cryst. coord.
        k(    1) = (   0.0000000   0.0000000   0.0000000), wk =   0.0002500
        k(    2) = (   0.0000000   0.0000000   0.0500000), wk =   0.0020000
        k(    3) = (   0.0000000   0.0000000   0.1000000), wk =   0.0020000
        k(    4) = (   0.0000000   0.0000000   0.1500000), wk =   0.0020000
        k(    5) = (   0.0000000   0.0000000   0.2000000), wk =   0.0020000
        k(    6) = (   0.0000000   0.0000000   0.2500000), wk =   0.0020000
        k(    7) = (   0.0000000   0.0000000   0.3000000), wk =   0.0020000
        k(    8) = (   0.0000000   0.0000000   0.3500000), wk =   0.0020000
        k(    9) = (   0.0000000   0.0000000   0.4000000), wk =   0.0020000
        k(   10) = (   0.0000000   0.0000000   0.4500000), wk =   0.0020000
        k(   11) = (   0.0000000   0.0000000  -0.5000000), wk =   0.0010000
        k(   12) = (   0.0000000   0.0500000   0.0500000), wk =   0.0015000
        k(   13) = (   0.0000000   0.0500000   0.1000000), wk =   0.0060000
        k(   14) = (   0.0000000   0.0500000   0.1500000), wk =   0.0060000
        k(   15) = (   0.0000000   0.0500000   0.2000000), wk =   0.0060000
        k(   16) = (   0.0000000   0.0500000   0.2500000), wk =   0.0060000
        k(   17) = (   0.0000000   0.0500000   0.3000000), wk =   0.0060000
        k(   18) = (   0.0000000   0.0500000   0.3500000), wk =   0.0060000
        k(   19) = (   0.0000000   0.0500000   0.4000000), wk =   0.0060000
        k(   20) = (   0.0000000   0.0500000   0.4500000), wk =   0.0060000
        k(   21) = (   0.0000000   0.0500000  -0.5000000), wk =   0.0060000
        k(   22) = (   0.0000000   0.0500000  -0.4500000), wk =   0.0060000
        k(   23) = (   0.0000000   0.0500000  -0.4000000), wk =   0.0060000
        k(   24) = (   0.0000000   0.0500000  -0.3500000), wk =   0.0060000
        k(   25) = (   0.0000000   0.0500000  -0.3000000), wk =   0.0060000
        k(   26) = (   0.0000000   0.0500000  -0.2500000), wk =   0.0060000
        k(   27) = (   0.0000000   0.0500000  -0.2000000), wk =   0.0060000
        k(   28) = (   0.0000000   0.0500000  -0.1500000), wk =   0.0060000
        k(   29) = (   0.0000000   0.0500000  -0.1000000), wk =   0.0060000
        k(   30) = (   0.0000000   0.0500000  -0.0500000), wk =   0.0030000
        k(   31) = (   0.0000000   0.1000000   0.1000000), wk =   0.0015000
        k(   32) = (   0.0000000   0.1000000   0.1500000), wk =   0.0060000
        k(   33) = (   0.0000000   0.1000000   0.2000000), wk =   0.0060000
        k(   34) = (   0.0000000   0.1000000   0.2500000), wk =   0.0060000
        k(   35) = (   0.0000000   0.1000000   0.3000000), wk =   0.0060000
        k(   36) = (   0.0000000   0.1000000   0.3500000), wk =   0.0060000
        k(   37) = (   0.0000000   0.1000000   0.4000000), wk =   0.0060000
        k(   38) = (   0.0000000   0.1000000   0.4500000), wk =   0.0060000
        k(   39) = (   0.0000000   0.1000000  -0.5000000), wk =   0.0060000
        k(   40) = (   0.0000000   0.1000000  -0.4500000), wk =   0.0060000
        k(   41) = (   0.0000000   0.1000000  -0.4000000), wk =   0.0060000
        k(   42) = (   0.0000000   0.1000000  -0.3500000), wk =   0.0060000
        k(   43) = (   0.0000000   0.1000000  -0.3000000), wk =   0.0060000
        k(   44) = (   0.0000000   0.1000000  -0.2500000), wk =   0.0060000
        k(   45) = (   0.0000000   0.1000000  -0.2000000), wk =   0.0060000
        k(   46) = (   0.0000000   0.1000000  -0.1500000), wk =   0.0060000
        k(   47) = (   0.0000000   0.1000000  -0.1000000), wk =   0.0030000
        k(   48) = (   0.0000000   0.1500000   0.1500000), wk =   0.0015000
        k(   49) = (   0.0000000   0.1500000   0.2000000), wk =   0.0060000
        k(   50) = (   0.0000000   0.1500000   0.2500000), wk =   0.0060000
        k(   51) = (   0.0000000   0.1500000   0.3000000), wk =   0.0060000
        k(   52) = (   0.0000000   0.1500000   0.3500000), wk =   0.0060000
        k(   53) = (   0.0000000   0.1500000   0.4000000), wk =   0.0060000
        k(   54) = (   0.0000000   0.1500000   0.4500000), wk =   0.0060000
        k(   55) = (   0.0000000   0.1500000  -0.5000000), wk =   0.0060000
        k(   56) = (   0.0000000   0.1500000  -0.4500000), wk =   0.0060000
        k(   57) = (   0.0000000   0.1500000  -0.4000000), wk =   0.0060000
        k(   58) = (   0.0000000   0.1500000  -0.3500000), wk =   0.0060000
        k(   59) = (   0.0000000   0.1500000  -0.3000000), wk =   0.0060000
        k(   60) = (   0.0000000   0.1500000  -0.2500000), wk =   0.0060000
        k(   61) = (   0.0000000   0.1500000  -0.2000000), wk =   0.0060000
        k(   62) = (   0.0000000   0.1500000  -0.1500000), wk =   0.0030000
        k(   63) = (   0.0000000   0.2000000   0.2000000), wk =   0.0015000
        k(   64) = (   0.0000000   0.2000000   0.2500000), wk =   0.0060000
        k(   65) = (   0.0000000   0.2000000   0.3000000), wk =   0.0060000
        k(   66) = (   0.0000000   0.2000000   0.3500000), wk =   0.0060000
        k(   67) = (   0.0000000   0.2000000   0.4000000), wk =   0.0060000
        k(   68) = (   0.0000000   0.2000000   0.4500000), wk =   0.0060000
        k(   69) = (   0.0000000   0.2000000  -0.5000000), wk =   0.0060000
        k(   70) = (   0.0000000   0.2000000  -0.4500000), wk =   0.0060000
        k(   71) = (   0.0000000   0.2000000  -0.4000000), wk =   0.0060000
        k(   72) = (   0.0000000   0.2000000  -0.3500000), wk =   0.0060000
        k(   73) = (   0.0000000   0.2000000  -0.3000000), wk =   0.0060000
        k(   74) = (   0.0000000   0.2000000  -0.2500000), wk =   0.0060000
        k(   75) = (   0.0000000   0.2000000  -0.2000000), wk =   0.0030000
        k(   76) = (   0.0000000   0.2500000   0.2500000), wk =   0.0015000
        k(   77) = (   0.0000000   0.2500000   0.3000000), wk =   0.0060000
        k(   78) = (   0.0000000   0.2500000   0.3500000), wk =   0.0060000
        k(   79) = (   0.0000000   0.2500000   0.4000000), wk =   0.0060000
        k(   80) = (   0.0000000   0.2500000   0.4500000), wk =   0.0060000
        k(   81) = (   0.0000000   0.2500000  -0.5000000), wk =   0.0060000
        k(   82) = (   0.0000000   0.2500000  -0.4500000), wk =   0.0060000
        k(   83) = (   0.0000000   0.2500000  -0.4000000), wk =   0.0060000
        k(   84) = (   0.0000000   0.2500000  -0.3500000), wk =   0.0060000
        k(   85) = (   0.0000000   0.2500000  -0.3000000), wk =   0.0060000
        k(   86) = (   0.0000000   0.2500000  -0.2500000), wk =   0.0030000
        k(   87) = (   0.0000000   0.3000000   0.3000000), wk =   0.0015000
        k(   88) = (   0.0000000   0.3000000   0.3500000), wk =   0.0060000
        k(   89) = (   0.0000000   0.3000000   0.4000000), wk =   0.0060000
        k(   90) = (   0.0000000   0.3000000   0.4500000), wk =   0.0060000
        k(   91) = (   0.0000000   0.3000000  -0.5000000), wk =   0.0060000
        k(   92) = (   0.0000000   0.3000000  -0.4500000), wk =   0.0060000
        k(   93) = (   0.0000000   0.3000000  -0.4000000), wk =   0.0060000
        k(   94) = (   0.0000000   0.3000000  -0.3500000), wk =   0.0060000
        k(   95) = (   0.0000000   0.3000000  -0.3000000), wk =   0.0030000
        k(   96) = (   0.0000000   0.3500000   0.3500000), wk =   0.0015000
        k(   97) = (   0.0000000   0.3500000   0.4000000), wk =   0.0060000
        k(   98) = (   0.0000000   0.3500000   0.4500000), wk =   0.0060000
        k(   99) = (   0.0000000   0.3500000  -0.5000000), wk =   0.0060000
        k(  100) = (   0.0000000   0.3500000  -0.4500000), wk =   0.0060000
        k(  101) = (   0.0000000   0.3500000  -0.4000000), wk =   0.0060000
        k(  102) = (   0.0000000   0.3500000  -0.3500000), wk =   0.0030000
        k(  103) = (   0.0000000   0.4000000   0.4000000), wk =   0.0015000
        k(  104) = (   0.0000000   0.4000000   0.4500000), wk =   0.0060000
        k(  105) = (   0.0000000   0.4000000  -0.5000000), wk =   0.0060000
        k(  106) = (   0.0000000   0.4000000  -0.4500000), wk =   0.0060000
        k(  107) = (   0.0000000   0.4000000  -0.4000000), wk =   0.0030000
        k(  108) = (   0.0000000   0.4500000   0.4500000), wk =   0.0015000
        k(  109) = (   0.0000000   0.4500000  -0.5000000), wk =   0.0060000
        k(  110) = (   0.0000000   0.4500000  -0.4500000), wk =   0.0030000
        k(  111) = (   0.0000000  -0.5000000  -0.5000000), wk =   0.0007500
        k(  112) = (   0.0500000   0.1000000   0.1500000), wk =   0.0060000
        k(  113) = (   0.0500000   0.1000000   0.2000000), wk =   0.0120000
        k(  114) = (   0.0500000   0.1000000   0.2500000), wk =   0.0120000
        k(  115) = (   0.0500000   0.1000000   0.3000000), wk =   0.0120000
        k(  116) = (   0.0500000   0.1000000   0.3500000), wk =   0.0120000
        k(  117) = (   0.0500000   0.1000000   0.4000000), wk =   0.0120000
        k(  118) = (   0.0500000   0.1000000   0.4500000), wk =   0.0120000
        k(  119) = (   0.0500000   0.1000000  -0.5000000), wk =   0.0120000
        k(  120) = (   0.0500000   0.1000000  -0.4500000), wk =   0.0060000
        k(  121) = (   0.0500000   0.1500000   0.2000000), wk =   0.0060000
        k(  122) = (   0.0500000   0.1500000   0.2500000), wk =   0.0120000
        k(  123) = (   0.0500000   0.1500000   0.3000000), wk =   0.0120000
        k(  124) = (   0.0500000   0.1500000   0.3500000), wk =   0.0120000
        k(  125) = (   0.0500000   0.1500000   0.4000000), wk =   0.0120000
        k(  126) = (   0.0500000   0.1500000   0.4500000), wk =   0.0120000
        k(  127) = (   0.0500000   0.1500000  -0.5000000), wk =   0.0120000
        k(  128) = (   0.0500000   0.1500000  -0.4500000), wk =   0.0120000
        k(  129) = (   0.0500000   0.1500000  -0.4000000), wk =   0.0120000
        k(  130) = (   0.0500000   0.1500000  -0.3500000), wk =   0.0120000
        k(  131) = (   0.0500000   0.1500000  -0.3000000), wk =   0.0120000
        k(  132) = (   0.0500000   0.1500000  -0.2500000), wk =   0.0120000
        k(  133) = (   0.0500000   0.1500000  -0.2000000), wk =   0.0120000
        k(  134) = (   0.0500000   0.1500000  -0.1500000), wk =   0.0120000
        k(  135) = (   0.0500000   0.1500000  -0.1000000), wk =   0.0060000
        k(  136) = (   0.0500000   0.2000000   0.2500000), wk =   0.0060000
        k(  137) = (   0.0500000   0.2000000   0.3000000), wk =   0.0120000
        k(  138) = (   0.0500000   0.2000000   0.3500000), wk =   0.0120000
        k(  139) = (   0.0500000   0.2000000   0.4000000), wk =   0.0120000
        k(  140) = (   0.0500000   0.2000000   0.4500000), wk =   0.0120000
        k(  141) = (   0.0500000   0.2000000  -0.5000000), wk =   0.0120000
        k(  142) = (   0.0500000   0.2000000  -0.4500000), wk =   0.0120000
        k(  143) = (   0.0500000   0.2000000  -0.4000000), wk =   0.0120000
        k(  144) = (   0.0500000   0.2000000  -0.3500000), wk =   0.0120000
        k(  145) = (   0.0500000   0.2000000  -0.3000000), wk =   0.0120000
        k(  146) = (   0.0500000   0.2000000  -0.2500000), wk =   0.0120000
        k(  147) = (   0.0500000   0.2000000  -0.2000000), wk =   0.0120000
        k(  148) = (   0.0500000   0.2000000  -0.1500000), wk =   0.0060000
        k(  149) = (   0.0500000   0.2500000   0.3000000), wk =   0.0060000
        k(  150) = (   0.0500000   0.2500000   0.3500000), wk =   0.0120000
        k(  151) = (   0.0500000   0.2500000   0.4000000), wk =   0.0120000
        k(  152) = (   0.0500000   0.2500000   0.4500000), wk =   0.0120000
        k(  153) = (   0.0500000   0.2500000  -0.5000000), wk =   0.0120000
        k(  154) = (   0.0500000   0.2500000  -0.4500000), wk =   0.0120000
        k(  155) = (   0.0500000   0.2500000  -0.4000000), wk =   0.0120000
        k(  156) = (   0.0500000   0.2500000  -0.3500000), wk =   0.0120000
        k(  157) = (   0.0500000   0.2500000  -0.3000000), wk =   0.0120000
        k(  158) = (   0.0500000   0.2500000  -0.2500000), wk =   0.0120000
        k(  159) = (   0.0500000   0.2500000  -0.2000000), wk =   0.0060000
        k(  160) = (   0.0500000   0.3000000   0.3500000), wk =   0.0060000
        k(  161) = (   0.0500000   0.3000000   0.4000000), wk =   0.0120000
        k(  162) = (   0.0500000   0.3000000   0.4500000), wk =   0.0120000
        k(  163) = (   0.0500000   0.3000000  -0.5000000), wk =   0.0120000
        k(  164) = (   0.0500000   0.3000000  -0.4500000), wk =   0.0120000
        k(  165) = (   0.0500000   0.3000000  -0.4000000), wk =   0.0120000
        k(  166) = (   0.0500000   0.3000000  -0.3500000), wk =   0.0120000
        k(  167) = (   0.0500000   0.3000000  -0.3000000), wk =   0.0120000
        k(  168) = (   0.0500000   0.3000000  -0.2500000), wk =   0.0060000
        k(  169) = (   0.0500000   0.3500000   0.4000000), wk =   0.0060000
        k(  170) = (   0.0500000   0.3500000   0.4500000), wk =   0.0120000
        k(  171) = (   0.0500000   0.3500000  -0.5000000), wk =   0.0120000
        k(  172) = (   0.0500000   0.3500000  -0.4500000), wk =   0.0120000
        k(  173) = (   0.0500000   0.3500000  -0.4000000), wk =   0.0120000
        k(  174) = (   0.0500000   0.3500000  -0.3500000), wk =   0.0120000
        k(  175) = (   0.0500000   0.3500000  -0.3000000), wk =   0.0060000
        k(  176) = (   0.0500000   0.4000000   0.4500000), wk =   0.0060000
        k(  177) = (   0.0500000   0.4000000  -0.5000000), wk =   0.0120000
        k(  178) = (   0.0500000   0.4000000  -0.4500000), wk =   0.0120000
        k(  179) = (   0.0500000   0.4000000  -0.4000000), wk =   0.0120000
        k(  180) = (   0.0500000   0.4000000  -0.3500000), wk =   0.0060000
        k(  181) = (   0.0500000   0.4500000  -0.5000000), wk =   0.0060000
        k(  182) = (   0.0500000   0.4500000  -0.4500000), wk =   0.0120000
        k(  183) = (   0.0500000   0.4500000  -0.4000000), wk =   0.0060000
        k(  184) = (   0.0500000  -0.5000000  -0.4500000), wk =   0.0030000
        k(  185) = (   0.1000000   0.2000000   0.3000000), wk =   0.0060000
        k(  186) = (   0.1000000   0.2000000   0.3500000), wk =   0.0120000
        k(  187) = (   0.1000000   0.2000000   0.4000000), wk =   0.0120000
        k(  188) = (   0.1000000   0.2000000   0.4500000), wk =   0.0120000
        k(  189) = (   0.1000000   0.2000000  -0.5000000), wk =   0.0120000
        k(  190) = (   0.1000000   0.2000000  -0.4500000), wk =   0.0120000
        k(  191) = (   0.1000000   0.2000000  -0.4000000), wk =   0.0060000
        k(  192) = (   0.1000000   0.2500000   0.3500000), wk =   0.0060000
        k(  193) = (   0.1000000   0.2500000   0.4000000), wk =   0.0120000
        k(  194) = (   0.1000000   0.2500000   0.4500000), wk =   0.0120000
        k(  195) = (   0.1000000   0.2500000  -0.5000000), wk =   0.0120000
        k(  196) = (   0.1000000   0.2500000  -0.4500000), wk =   0.0120000
        k(  197) = (   0.1000000   0.2500000  -0.4000000), wk =   0.0120000
        k(  198) = (   0.1000000   0.2500000  -0.3500000), wk =   0.0120000
        k(  199) = (   0.1000000   0.2500000  -0.3000000), wk =   0.0120000
        k(  200) = (   0.1000000   0.2500000  -0.2500000), wk =   0.0120000
        k(  201) = (   0.1000000   0.2500000  -0.2000000), wk =   0.0120000
        k(  202) = (   0.1000000   0.2500000  -0.1500000), wk =   0.0060000
        k(  203) = (   0.1000000   0.3000000   0.4000000), wk =   0.0060000
        k(  204) = (   0.1000000   0.3000000   0.4500000), wk =   0.0120000
        k(  205) = (   0.1000000   0.3000000  -0.5000000), wk =   0.0120000
        k(  206) = (   0.1000000   0.3000000  -0.4500000), wk =   0.0120000
        k(  207) = (   0.1000000   0.3000000  -0.4000000), wk =   0.0120000
        k(  208) = (   0.1000000   0.3000000  -0.3500000), wk =   0.0120000
        k(  209) = (   0.1000000   0.3000000  -0.3000000), wk =   0.0120000
        k(  210) = (   0.1000000   0.3000000  -0.2500000), wk =   0.0120000
        k(  211) = (   0.1000000   0.3000000  -0.2000000), wk =   0.0060000
        k(  212) = (   0.1000000   0.3500000   0.4500000), wk =   0.0060000
        k(  213) = (   0.1000000   0.3500000  -0.5000000), wk =   0.0120000
        k(  214) = (   0.1000000   0.3500000  -0.4500000), wk =   0.0120000
        k(  215) = (   0.1000000   0.3500000  -0.4000000), wk =   0.0120000
        k(  216) = (   0.1000000   0.3500000  -0.3500000), wk =   0.0120000
        k(  217) = (   0.1000000   0.3500000  -0.3000000), wk =   0.0120000
        k(  218) = (   0.1000000   0.3500000  -0.2500000), wk =   0.0060000
        k(  219) = (   0.1000000   0.4000000  -0.5000000), wk =   0.0060000
        k(  220) = (   0.1000000   0.4000000  -0.4500000), wk =   0.0120000
        k(  221) = (   0.1000000   0.4000000  -0.4000000), wk =   0.0120000
        k(  222) = (   0.1000000   0.4000000  -0.3500000), wk =   0.0120000
        k(  223) = (   0.1000000   0.4000000  -0.3000000), wk =   0.0060000
        k(  224) = (   0.1000000   0.4500000  -0.4500000), wk =   0.0060000
        k(  225) = (   0.1000000   0.4500000  -0.4000000), wk =   0.0120000
        k(  226) = (   0.1000000   0.4500000  -0.3500000), wk =   0.0060000
        k(  227) = (   0.1000000  -0.5000000  -0.4000000), wk =   0.0030000
        k(  228) = (   0.1500000   0.3000000   0.4500000), wk =   0.0060000
        k(  229) = (   0.1500000   0.3000000  -0.5000000), wk =   0.0120000
        k(  230) = (   0.1500000   0.3000000  -0.4500000), wk =   0.0120000
        k(  231) = (   0.1500000   0.3000000  -0.4000000), wk =   0.0120000
        k(  232) = (   0.1500000   0.3000000  -0.3500000), wk =   0.0060000
        k(  233) = (   0.1500000   0.3500000  -0.5000000), wk =   0.0060000
        k(  234) = (   0.1500000   0.3500000  -0.4500000), wk =   0.0120000
        k(  235) = (   0.1500000   0.3500000  -0.4000000), wk =   0.0120000
        k(  236) = (   0.1500000   0.3500000  -0.3500000), wk =   0.0120000
        k(  237) = (   0.1500000   0.3500000  -0.3000000), wk =   0.0120000
        k(  238) = (   0.1500000   0.3500000  -0.2500000), wk =   0.0120000
        k(  239) = (   0.1500000   0.3500000  -0.2000000), wk =   0.0060000
        k(  240) = (   0.1500000   0.4000000  -0.4500000), wk =   0.0060000
        k(  241) = (   0.1500000   0.4000000  -0.4000000), wk =   0.0120000
        k(  242) = (   0.1500000   0.4000000  -0.3500000), wk =   0.0120000
        k(  243) = (   0.1500000   0.4000000  -0.3000000), wk =   0.0120000
        k(  244) = (   0.1500000   0.4000000  -0.2500000), wk =   0.0060000
        k(  245) = (   0.1500000   0.4500000  -0.4000000), wk =   0.0060000
        k(  246) = (   0.1500000   0.4500000  -0.3500000), wk =   0.0120000
        k(  247) = (   0.1500000   0.4500000  -0.3000000), wk =   0.0060000
        k(  248) = (   0.1500000  -0.5000000  -0.3500000), wk =   0.0030000
        k(  249) = (   0.2000000   0.4000000  -0.4000000), wk =   0.0060000
        k(  250) = (   0.2000000   0.4000000  -0.3500000), wk =   0.0120000
        k(  251) = (   0.2000000   0.4000000  -0.3000000), wk =   0.0060000
        k(  252) = (   0.2000000   0.4500000  -0.3500000), wk =   0.0060000
        k(  253) = (   0.2000000   0.4500000  -0.3000000), wk =   0.0120000
        k(  254) = (   0.2000000   0.4500000  -0.2500000), wk =   0.0060000
        k(  255) = (   0.2000000  -0.5000000  -0.3000000), wk =   0.0030000
        k(  256) = (   0.2500000  -0.5000000  -0.2500000), wk =   0.0015000

     Dense  grid:    13323 G-vectors     FFT dimensions: (  36,  36,  36)

     Dynamical RAM for                 wfc:       0.25 MB

     Dynamical RAM for     wfc (w. buffer):       0.25 MB

     Dynamical RAM for           str. fact:       0.41 MB

     Dynamical RAM for           local pot:       0.00 MB

     Dynamical RAM for          nlocal pot:       0.48 MB

     Dynamical RAM for                qrad:       2.49 MB

     Dynamical RAM for          rho,v,vnew:       1.68 MB

     Dynamical RAM for           G-vectors:       0.86 MB

     Dynamical RAM for          h,s,v(r/c):       0.02 MB

     Dynamical RAM for          <psi|beta>:       0.00 MB

     Dynamical RAM for                 psi:       0.51 MB

     Dynamical RAM for                hpsi:       0.51 MB

     Dynamical RAM for      wfcinit/wfcrot:       0.92 MB

     Estimated static dynamical RAM per process >       8.56 MB

     Estimated max dynamical RAM per process >       9.59 MB

     The potential is recalculated from file :
     ./SCRATCH/zns.save/charge-density

     Starting wfcs are   18 randomized atomic wfcs

     Band Structure Calculation
     Davidson diagonalization with overlap

     Computing kpt #:     1  of   256
     total cpu time spent up to now is        0.4 secs

     Computing kpt #:     2  of   256
     total cpu time spent up to now is        0.5 secs

     Computing kpt #:     3  of   256
     total cpu time spent up to now is        0.6 secs

     Computing kpt #:     4  of   256
     total cpu time spent up to now is        0.7 secs

     Computing kpt #:     5  of   256
     total cpu time spent up to now is        0.9 secs

     Computing kpt #:     6  of   256
     total cpu time spent up to now is        1.0 secs

     Computing kpt #:     7  of   256
     total cpu time spent up to now is        1.2 secs

     Computing kpt #:     8  of   256
     total cpu time spent up to now is        1.3 secs

     Computing kpt #:     9  of   256
     total cpu time spent up to now is        1.5 secs

     Computing kpt #:    10  of   256
     total cpu time spent up to now is        1.7 secs

     Computing kpt #:    11  of   256
     total cpu time spent up to now is        1.9 secs

     Computing kpt #:    12  of   256
     total cpu time spent up to now is        2.0 secs

     Computing kpt #:    13  of   256
     total cpu time spent up to now is        2.2 secs

     Computing kpt #:    14  of   256
     total cpu time spent up to now is        2.3 secs

     Computing kpt #:    15  of   256
     total cpu time spent up to now is        2.4 secs

     Computing kpt #:    16  of   256
     total cpu time spent up to now is        2.6 secs

     Computing kpt #:    17  of   256
     total cpu time spent up to now is        2.7 secs

     Computing kpt #:    18  of   256
     total cpu time spent up to now is        2.9 secs

     Computing kpt #:    19  of   256
     total cpu time spent up to now is        3.1 secs

     Computing kpt #:    20  of   256
     total cpu time spent up to now is        3.3 secs

     Computing kpt #:    21  of   256
     total cpu time spent up to now is        3.5 secs

     Computing kpt #:    22  of   256
     total cpu time spent up to now is        3.7 secs

     Computing kpt #:    23  of   256
     total cpu time spent up to now is        3.9 secs

     Computing kpt #:    24  of   256
     total cpu time spent up to now is        4.0 secs

     Computing kpt #:    25  of   256
     total cpu time spent up to now is        4.2 secs

     Computing kpt #:    26  of   256
     total cpu time spent up to now is        4.4 secs

     Computing kpt #:    27  of   256
     total cpu time spent up to now is        4.6 secs

     Computing kpt #:    28  of   256
     total cpu time spent up to now is        4.7 secs

     Computing kpt #:    29  of   256
     total cpu time spent up to now is        4.8 secs

     Computing kpt #:    30  of   256
     total cpu time spent up to now is        5.0 secs

     Computing kpt #:    31  of   256
     total cpu time spent up to now is        5.1 secs

     Computing kpt #:    32  of   256
     total cpu time spent up to now is        5.3 secs

     Computing kpt #:    33  of   256
     total cpu time spent up to now is        5.4 secs

     Computing kpt #:    34  of   256
     total cpu time spent up to now is        5.5 secs

     Computing kpt #:    35  of   256
     total cpu time spent up to now is        5.7 secs

     Computing kpt #:    36  of   256
     total cpu time spent up to now is        5.9 secs

     Computing kpt #:    37  of   256
     total cpu time spent up to now is        6.1 secs

     Computing kpt #:    38  of   256
     total cpu time spent up to now is        6.2 secs

     Computing kpt #:    39  of   256
     total cpu time spent up to now is        6.4 secs

     Computing kpt #:    40  of   256
     total cpu time spent up to now is        6.6 secs

     Computing kpt #:    41  of   256
     total cpu time spent up to now is        6.8 secs

     Computing kpt #:    42  of   256
     total cpu time spent up to now is        7.0 secs

     Computing kpt #:    43  of   256
     total cpu time spent up to now is        7.2 secs

     Computing kpt #:    44  of   256
     total cpu time spent up to now is        7.3 secs

     Computing kpt #:    45  of   256
     total cpu time spent up to now is        7.5 secs

     Computing kpt #:    46  of   256
     total cpu time spent up to now is        7.7 secs

     Computing kpt #:    47  of   256
     total cpu time spent up to now is        7.8 secs

     Computing kpt #:    48  of   256
     total cpu time spent up to now is        7.9 secs

     Computing kpt #:    49  of   256
     total cpu time spent up to now is        8.1 secs

     Computing kpt #:    50  of   256
     total cpu time spent up to now is        8.2 secs

     Computing kpt #:    51  of   256
     total cpu time spent up to now is        8.4 secs

     Computing kpt #:    52  of   256
     total cpu time spent up to now is        8.5 secs

     Computing kpt #:    53  of   256
     total cpu time spent up to now is        8.7 secs

     Computing kpt #:    54  of   256
     total cpu time spent up to now is        8.9 secs

     Computing kpt #:    55  of   256
     total cpu time spent up to now is        9.1 secs

     Computing kpt #:    56  of   256
     total cpu time spent up to now is        9.3 secs

     Computing kpt #:    57  of   256
     total cpu time spent up to now is        9.5 secs

     Computing kpt #:    58  of   256
     total cpu time spent up to now is        9.6 secs

     Computing kpt #:    59  of   256
     total cpu time spent up to now is        9.8 secs

     Computing kpt #:    60  of   256
     total cpu time spent up to now is       10.0 secs

     Computing kpt #:    61  of   256
     total cpu time spent up to now is       10.2 secs

     Computing kpt #:    62  of   256
     total cpu time spent up to now is       10.3 secs

     Computing kpt #:    63  of   256
     total cpu time spent up to now is       10.5 secs

     Computing kpt #:    64  of   256
     total cpu time spent up to now is       10.7 secs

     Computing kpt #:    65  of   256
     total cpu time spent up to now is       10.8 secs

     Computing kpt #:    66  of   256
     total cpu time spent up to now is       11.0 secs

     Computing kpt #:    67  of   256
     total cpu time spent up to now is       11.1 secs

     Computing kpt #:    68  of   256
     total cpu time spent up to now is       11.3 secs

     Computing kpt #:    69  of   256
     total cpu time spent up to now is       11.5 secs

     Computing kpt #:    70  of   256
     total cpu time spent up to now is       11.7 secs

     Computing kpt #:    71  of   256
     total cpu time spent up to now is       11.9 secs

     Computing kpt #:    72  of   256
     total cpu time spent up to now is       12.1 secs

     Computing kpt #:    73  of   256
     total cpu time spent up to now is       12.2 secs

     Computing kpt #:    74  of   256
     total cpu time spent up to now is       12.4 secs

     Computing kpt #:    75  of   256
     total cpu time spent up to now is       12.6 secs

     Computing kpt #:    76  of   256
     total cpu time spent up to now is       12.8 secs

     Computing kpt #:    77  of   256
     total cpu time spent up to now is       12.9 secs

     Computing kpt #:    78  of   256
     total cpu time spent up to now is       13.1 secs

     Computing kpt #:    79  of   256
     total cpu time spent up to now is       13.2 secs

     Computing kpt #:    80  of   256
     total cpu time spent up to now is       13.4 secs

     Computing kpt #:    81  of   256
     total cpu time spent up to now is       13.6 secs

     Computing kpt #:    82  of   256
     total cpu time spent up to now is       13.8 secs

     Computing kpt #:    83  of   256
     total cpu time spent up to now is       14.0 secs

     Computing kpt #:    84  of   256
     total cpu time spent up to now is       14.1 secs

     Computing kpt #:    85  of   256
     total cpu time spent up to now is       14.3 secs

     Computing kpt #:    86  of   256
     total cpu time spent up to now is       14.5 secs

     Computing kpt #:    87  of   256
     total cpu time spent up to now is       14.7 secs

     Computing kpt #:    88  of   256
     total cpu time spent up to now is       14.8 secs

     Computing kpt #:    89  of   256
     total cpu time spent up to now is       15.0 secs

     Computing kpt #:    90  of   256
     total cpu time spent up to now is       15.1 secs

     Computing kpt #:    91  of   256
     total cpu time spent up to now is       15.3 secs

     Computing kpt #:    92  of   256
     total cpu time spent up to now is       15.5 secs

     Computing kpt #:    93  of   256
     total cpu time spent up to now is       15.7 secs

     Computing kpt #:    94  of   256
     total cpu time spent up to now is       15.8 secs

     Computing kpt #:    95  of   256
     total cpu time spent up to now is       16.0 secs

     Computing kpt #:    96  of   256
     total cpu time spent up to now is       16.1 secs

     Computing kpt #:    97  of   256
     total cpu time spent up to now is       16.3 secs

     Computing kpt #:    98  of   256
     total cpu time spent up to now is       16.5 secs

     Computing kpt #:    99  of   256
     total cpu time spent up to now is       16.7 secs

     Computing kpt #:   100  of   256
     total cpu time spent up to now is       16.8 secs

     Computing kpt #:   101  of   256
     total cpu time spent up to now is       17.0 secs

     Computing kpt #:   102  of   256
     total cpu time spent up to now is       17.2 secs

     Computing kpt #:   103  of   256
     total cpu time spent up to now is       17.3 secs

     Computing kpt #:   104  of   256
     total cpu time spent up to now is       17.5 secs

     Computing kpt #:   105  of   256
     total cpu time spent up to now is       17.7 secs

     Computing kpt #:   106  of   256
     total cpu time spent up to now is       17.8 secs

     Computing kpt #:   107  of   256
     total cpu time spent up to now is       18.0 secs

     Computing kpt #:   108  of   256
     total cpu time spent up to now is       18.2 secs

     Computing kpt #:   109  of   256
     total cpu time spent up to now is       18.4 secs

     Computing kpt #:   110  of   256
     total cpu time spent up to now is       18.5 secs

     Computing kpt #:   111  of   256
     total cpu time spent up to now is       18.7 secs

     Computing kpt #:   112  of   256
     total cpu time spent up to now is       18.9 secs

     Computing kpt #:   113  of   256
     total cpu time spent up to now is       19.0 secs

     Computing kpt #:   114  of   256
     total cpu time spent up to now is       19.2 secs

     Computing kpt #:   115  of   256
     total cpu time spent up to now is       19.3 secs

     Computing kpt #:   116  of   256
     total cpu time spent up to now is       19.5 secs

     Computing kpt #:   117  of   256
     total cpu time spent up to now is       19.7 secs

     Computing kpt #:   118  of   256
     total cpu time spent up to now is       19.9 secs

     Computing kpt #:   119  of   256
     total cpu time spent up to now is       20.1 secs

     Computing kpt #:   120  of   256
     total cpu time spent up to now is       20.3 secs

     Computing kpt #:   121  of   256
     total cpu time spent up to now is       20.4 secs

     Computing kpt #:   122  of   256
     total cpu time spent up to now is       20.6 secs

     Computing kpt #:   123  of   256
     total cpu time spent up to now is       20.7 secs

     Computing kpt #:   124  of   256
     total cpu time spent up to now is       20.9 secs

     Computing kpt #:   125  of   256
     total cpu time spent up to now is       21.1 secs

     Computing kpt #:   126  of   256
     total cpu time spent up to now is       21.3 secs

     Computing kpt #:   127  of   256
     total cpu time spent up to now is       21.5 secs

     Computing kpt #:   128  of   256
     total cpu time spent up to now is       21.7 secs

     Computing kpt #:   129  of   256
     total cpu time spent up to now is       21.9 secs

     Computing kpt #:   130  of   256
     total cpu time spent up to now is       22.1 secs

     Computing kpt #:   131  of   256
     total cpu time spent up to now is       22.3 secs

     Computing kpt #:   132  of   256
     total cpu time spent up to now is       22.5 secs

     Computing kpt #:   133  of   256
     total cpu time spent up to now is       22.6 secs

     Computing kpt #:   134  of   256
     total cpu time spent up to now is       22.8 secs

     Computing kpt #:   135  of   256
     total cpu time spent up to now is       22.9 secs

     Computing kpt #:   136  of   256
     total cpu time spent up to now is       23.1 secs

     Computing kpt #:   137  of   256
     total cpu time spent up to now is       23.2 secs

     Computing kpt #:   138  of   256
     total cpu time spent up to now is       23.4 secs

     Computing kpt #:   139  of   256
     total cpu time spent up to now is       23.6 secs

     Computing kpt #:   140  of   256
     total cpu time spent up to now is       23.8 secs

     Computing kpt #:   141  of   256
     total cpu time spent up to now is       24.0 secs

     Computing kpt #:   142  of   256
     total cpu time spent up to now is       24.2 secs

     Computing kpt #:   143  of   256
     total cpu time spent up to now is       24.3 secs

     Computing kpt #:   144  of   256
     total cpu time spent up to now is       24.5 secs

     Computing kpt #:   145  of   256
     total cpu time spent up to now is       24.7 secs

     Computing kpt #:   146  of   256
     total cpu time spent up to now is       24.9 secs

     Computing kpt #:   147  of   256
     total cpu time spent up to now is       25.1 secs

     Computing kpt #:   148  of   256
     total cpu time spent up to now is       25.3 secs

     Computing kpt #:   149  of   256
     total cpu time spent up to now is       25.4 secs

     Computing kpt #:   150  of   256
     total cpu time spent up to now is       25.6 secs

     Computing kpt #:   151  of   256
     total cpu time spent up to now is       25.7 secs

     Computing kpt #:   152  of   256
     total cpu time spent up to now is       25.9 secs

     Computing kpt #:   153  of   256
     total cpu time spent up to now is       26.1 secs

     Computing kpt #:   154  of   256
     total cpu time spent up to now is       26.3 secs

     Computing kpt #:   155  of   256
     total cpu time spent up to now is       26.5 secs

     Computing kpt #:   156  of   256
     total cpu time spent up to now is       26.7 secs

     Computing kpt #:   157  of   256
     total cpu time spent up to now is       26.9 secs

     Computing kpt #:   158  of   256
     total cpu time spent up to now is       27.0 secs

     Computing kpt #:   159  of   256
     total cpu time spent up to now is       27.2 secs

     Computing kpt #:   160  of   256
     total cpu time spent up to now is       27.4 secs

     Computing kpt #:   161  of   256
     total cpu time spent up to now is       27.6 secs

     Computing kpt #:   162  of   256
     total cpu time spent up to now is       27.7 secs

     Computing kpt #:   163  of   256
     total cpu time spent up to now is       27.9 secs

     Computing kpt #:   164  of   256
     total cpu time spent up to now is       28.1 secs

     Computing kpt #:   165  of   256
     total cpu time spent up to now is       28.3 secs

     Computing kpt #:   166  of   256
     total cpu time spent up to now is       28.5 secs

     Computing kpt #:   167  of   256
     total cpu time spent up to now is       28.6 secs

     Computing kpt #:   168  of   256
     total cpu time spent up to now is       28.8 secs

     Computing kpt #:   169  of   256
     total cpu time spent up to now is       29.0 secs

     Computing kpt #:   170  of   256
     total cpu time spent up to now is       29.1 secs

     Computing kpt #:   171  of   256
     total cpu time spent up to now is       29.3 secs

     Computing kpt #:   172  of   256
     total cpu time spent up to now is       29.5 secs

     Computing kpt #:   173  of   256
     total cpu time spent up to now is       29.7 secs

     Computing kpt #:   174  of   256
     total cpu time spent up to now is       29.8 secs

     Computing kpt #:   175  of   256
     total cpu time spent up to now is       30.0 secs

     Computing kpt #:   176  of   256
     total cpu time spent up to now is       30.2 secs

     Computing kpt #:   177  of   256
     total cpu time spent up to now is       30.3 secs

     Computing kpt #:   178  of   256
     total cpu time spent up to now is       30.5 secs

     Computing kpt #:   179  of   256
     total cpu time spent up to now is       30.7 secs

     Computing kpt #:   180  of   256
     total cpu time spent up to now is       30.9 secs

     Computing kpt #:   181  of   256
     total cpu time spent up to now is       31.0 secs

     Computing kpt #:   182  of   256
     total cpu time spent up to now is       31.2 secs

     Computing kpt #:   183  of   256
     total cpu time spent up to now is       31.4 secs

     Computing kpt #:   184  of   256
     total cpu time spent up to now is       31.6 secs

     Computing kpt #:   185  of   256
     total cpu time spent up to now is       31.8 secs

     Computing kpt #:   186  of   256
     total cpu time spent up to now is       31.9 secs

     Computing kpt #:   187  of   256
     total cpu time spent up to now is       32.1 secs

     Computing kpt #:   188  of   256
     total cpu time spent up to now is       32.3 secs

     Computing kpt #:   189  of   256
     total cpu time spent up to now is       32.5 secs

     Computing kpt #:   190  of   256
     total cpu time spent up to now is       32.7 secs

     Computing kpt #:   191  of   256
     total cpu time spent up to now is       32.9 secs

     Computing kpt #:   192  of   256
     total cpu time spent up to now is       33.0 secs

     Computing kpt #:   193  of   256
     total cpu time spent up to now is       33.2 secs

     Computing kpt #:   194  of   256
     total cpu time spent up to now is       33.4 secs

     Computing kpt #:   195  of   256
     total cpu time spent up to now is       33.6 secs

     Computing kpt #:   196  of   256
     total cpu time spent up to now is       33.8 secs

     Computing kpt #:   197  of   256
     total cpu time spent up to now is       34.0 secs

     Computing kpt #:   198  of   256
     total cpu time spent up to now is       34.2 secs

     Computing kpt #:   199  of   256
     total cpu time spent up to now is       34.4 secs

     Computing kpt #:   200  of   256
     total cpu time spent up to now is       34.6 secs

     Computing kpt #:   201  of   256
     total cpu time spent up to now is       34.7 secs

     Computing kpt #:   202  of   256
     total cpu time spent up to now is       34.9 secs

     Computing kpt #:   203  of   256
     total cpu time spent up to now is       35.1 secs

     Computing kpt #:   204  of   256
     total cpu time spent up to now is       35.3 secs

     Computing kpt #:   205  of   256
     total cpu time spent up to now is       35.5 secs

     Computing kpt #:   206  of   256
     total cpu time spent up to now is       35.7 secs

     Computing kpt #:   207  of   256
     total cpu time spent up to now is       35.8 secs

     Computing kpt #:   208  of   256
     total cpu time spent up to now is       36.0 secs

     Computing kpt #:   209  of   256
     total cpu time spent up to now is       36.2 secs

     Computing kpt #:   210  of   256
     total cpu time spent up to now is       36.4 secs

     Computing kpt #:   211  of   256
     total cpu time spent up to now is       36.6 secs

     Computing kpt #:   212  of   256
     total cpu time spent up to now is       36.8 secs

     Computing kpt #:   213  of   256
     total cpu time spent up to now is       37.0 secs

     Computing kpt #:   214  of   256
     total cpu time spent up to now is       37.1 secs

     Computing kpt #:   215  of   256
     total cpu time spent up to now is       37.3 secs

     Computing kpt #:   216  of   256
     total cpu time spent up to now is       37.5 secs

     Computing kpt #:   217  of   256
     total cpu time spent up to now is       37.7 secs

     Computing kpt #:   218  of   256
     total cpu time spent up to now is       37.9 secs

     Computing kpt #:   219  of   256
     total cpu time spent up to now is       38.0 secs

     Computing kpt #:   220  of   256
     total cpu time spent up to now is       38.2 secs

     Computing kpt #:   221  of   256
     total cpu time spent up to now is       38.4 secs

     Computing kpt #:   222  of   256
     total cpu time spent up to now is       38.6 secs

     Computing kpt #:   223  of   256
     total cpu time spent up to now is       38.8 secs

     Computing kpt #:   224  of   256
     total cpu time spent up to now is       38.9 secs

     Computing kpt #:   225  of   256
     total cpu time spent up to now is       39.1 secs

     Computing kpt #:   226  of   256
     total cpu time spent up to now is       39.3 secs

     Computing kpt #:   227  of   256
     total cpu time spent up to now is       39.5 secs

     Computing kpt #:   228  of   256
     total cpu time spent up to now is       39.7 secs

     Computing kpt #:   229  of   256
     total cpu time spent up to now is       39.9 secs

     Computing kpt #:   230  of   256
     total cpu time spent up to now is       40.0 secs

     Computing kpt #:   231  of   256
     total cpu time spent up to now is       40.2 secs

     Computing kpt #:   232  of   256
     total cpu time spent up to now is       40.4 secs

     Computing kpt #:   233  of   256
     total cpu time spent up to now is       40.6 secs

     Computing kpt #:   234  of   256
     total cpu time spent up to now is       40.8 secs

     Computing kpt #:   235  of   256
     total cpu time spent up to now is       41.0 secs

     Computing kpt #:   236  of   256
     total cpu time spent up to now is       41.2 secs

     Computing kpt #:   237  of   256
     total cpu time spent up to now is       41.3 secs

     Computing kpt #:   238  of   256
     total cpu time spent up to now is       41.5 secs

     Computing kpt #:   239  of   256
     total cpu time spent up to now is       41.7 secs

     Computing kpt #:   240  of   256
     total cpu time spent up to now is       41.9 secs

     Computing kpt #:   241  of   256
     total cpu time spent up to now is       42.1 secs

     Computing kpt #:   242  of   256
     total cpu time spent up to now is       42.2 secs

     Computing kpt #:   243  of   256
     total cpu time spent up to now is       42.4 secs

     Computing kpt #:   244  of   256
     total cpu time spent up to now is       42.6 secs

     Computing kpt #:   245  of   256
     total cpu time spent up to now is       42.8 secs

     Computing kpt #:   246  of   256
     total cpu time spent up to now is       43.0 secs

     Computing kpt #:   247  of   256
     total cpu time spent up to now is       43.1 secs

     Computing kpt #:   248  of   256
     total cpu time spent up to now is       43.3 secs

     Computing kpt #:   249  of   256
     total cpu time spent up to now is       43.5 secs

     Computing kpt #:   250  of   256
     total cpu time spent up to now is       43.7 secs

     Computing kpt #:   251  of   256
     total cpu time spent up to now is       43.9 secs

     Computing kpt #:   252  of   256
     total cpu time spent up to now is       44.1 secs

     Computing kpt #:   253  of   256
     total cpu time spent up to now is       44.3 secs

     Computing kpt #:   254  of   256
     total cpu time spent up to now is       44.4 secs

     Computing kpt #:   255  of   256
     total cpu time spent up to now is       44.6 secs

     Computing kpt #:   256  of   256
     total cpu time spent up to now is       44.8 secs

     ethr =  1.25E-10,  avg # of iterations = 25.7

     total cpu time spent up to now is       44.8 secs

     End of band structure calculation

          k = 0.0000 0.0000 0.0000 (  1639 PWs)   bands (ev):

    -9.2542   4.7848   4.7848   4.7848   9.0772  11.8528  11.8528  11.8528
    16.9748  16.9748

     occupation numbers 
     1.0000   1.0000   1.0000   1.0000   0.0000   0.0000   0.0000   0.0000
     0.0000   0.0000

          k =-0.0500 0.0500-0.0500 (  1663 PWs)   bands (ev):

    -9.2253   4.5309   4.7555   4.7555   9.2584  11.8399  11.9114  11.9114
    16.8328  16.8328

     occupation numbers 
     1.0000   1.0000   1.0000   1.0000   0.0000   0.0000   0.0000   0.0000
     0.0000   0.0000

          k =-0.1000 0.1000-0.1000 (  1672 PWs)   bands (ev):

    -9.1389   3.8912   4.6734   4.6734   9.6385  11.8713  12.0708  12.0708
    16.5179  16.5179

     occupation numbers 
     1.0000   1.0000   1.0000   1.0000   0.0000   0.0000   0.0000   0.0000
     0.0000   0.0000

          k =-0.1500 0.1500-0.1500 (  1672 PWs)   bands (ev):

    -8.9972   3.0574   4.5526   4.5526   9.9120  12.1215  12.2798  12.2798
    16.2221  16.2221

     occupation numbers 
[...]
     0.0000   0.0000

          k = 0.6500-0.3500 0.8500 (  1652 PWs)   bands (ev):

    -7.4826  -0.4465   2.0859   3.1555  10.4052  11.7776  13.0832  14.6229
    17.4385  20.3262

     occupation numbers 
     1.0000   1.0000   1.0000   1.0000   0.0000   0.0000   0.0000   0.0000
     0.0000   0.0000

          k = 0.6000-0.3000 0.8000 (  1653 PWs)   bands (ev):

    -7.2979  -0.8086   1.9519   3.0702  10.4424  11.6470  13.6777  14.6183
    17.6345  19.9678

     occupation numbers 
     1.0000   1.0000   1.0000   1.0000   0.0000   0.0000   0.0000   0.0000
     0.0000   0.0000

          k = 0.5500-0.2500 0.7500 (  1660 PWs)   bands (ev):

    -7.2040  -0.9839   1.8564   3.0614  10.5364  11.5149  14.0146  14.7744
    17.3766  19.7191

     occupation numbers 
     1.0000   1.0000   1.0000   1.0000   0.0000   0.0000   0.0000   0.0000
     0.0000   0.0000

          k = 0.5000-0.2000 0.7000 (  1657 PWs)   bands (ev):

    -7.2252  -0.9407   1.8040   3.1292  10.6841  11.4310  14.0104  14.7682
    17.2554  19.3623

     occupation numbers 
     1.0000   1.0000   1.0000   1.0000   0.0000   0.0000   0.0000   0.0000
     0.0000   0.0000

          k = 0.4500-0.1500 0.6500 (  1655 PWs)   bands (ev):

    -7.3557  -0.6893   1.8096   3.2613  10.8647  11.4239  13.6837  14.5498
    17.1066  19.4208

     occupation numbers 
     1.0000   1.0000   1.0000   1.0000   0.0000   0.0000   0.0000   0.0000
     0.0000   0.0000

          k = 0.4000-0.1000 0.6000 (  1652 PWs)   bands (ev):

    -7.5636  -0.2801   1.8956   3.4385  11.0323  11.5257  13.0398  14.4746
    16.5456  20.1247

     occupation numbers 
     1.0000   1.0000   1.0000   1.0000   0.0000   0.0000   0.0000   0.0000
     0.0000   0.0000

          k = 0.3500-0.0500 0.5500 (  1658 PWs)   bands (ev):

    -7.8092   0.2102   2.0932   3.6367  11.1460  11.7006  12.4034  14.4174
    15.9228  20.2166

     occupation numbers 
     1.0000   1.0000   1.0000   1.0000   0.0000   0.0000   0.0000   0.0000
     0.0000   0.0000

          k = 0.3000-0.0000 0.5000 (  1663 PWs)   bands (ev):

    -8.0588   0.6966   2.4355   3.8266  11.1460  11.6022  12.2876  14.1805
    15.5548  19.2466

     occupation numbers 
     1.0000   1.0000   1.0000   1.0000   0.0000   0.0000   0.0000   0.0000
     0.0000   0.0000

          k =-0.2000 0.6000 0.0000 (  1661 PWs)   bands (ev):

    -7.8667   0.5513   2.4950   3.1330   9.8664  10.8297  13.5116  15.3856
    16.4985  19.3090

     occupation numbers 
     1.0000   1.0000   1.0000   1.0000   0.0000   0.0000   0.0000   0.0000
     0.0000   0.0000

          k =-0.2500 0.6500-0.0500 (  1660 PWs)   bands (ev):

    -7.6316   0.1264   2.1604   2.9603   9.9423  11.0694  13.3373  15.6215
    16.9982  20.1397

     occupation numbers 
     1.0000   1.0000   1.0000   1.0000   0.0000   0.0000   0.0000   0.0000
     0.0000   0.0000

          k = 0.7000-0.3000 0.9000 (  1653 PWs)   bands (ev):

    -7.4041  -0.2718   1.8714   2.8160   9.9826  11.5334  13.2183  15.5687
    17.5695  20.5585

     occupation numbers 
     1.0000   1.0000   1.0000   1.0000   0.0000   0.0000   0.0000   0.0000
     0.0000   0.0000

          k = 0.6500-0.2500 0.8500 (  1659 PWs)   bands (ev):

    -7.2162  -0.5875   1.6230   2.7431  10.0401  11.9645  13.3150  15.4167
    17.6987  20.3359

     occupation numbers 
     1.0000   1.0000   1.0000   1.0000   0.0000   0.0000   0.0000   0.0000
     0.0000   0.0000

          k = 0.6000-0.2000 0.8000 (  1659 PWs)   bands (ev):

    -7.1028  -0.7661   1.4230   2.7551  10.1490  12.1209  13.7412  15.1983
    17.3076  19.9890

     occupation numbers 
     1.0000   1.0000   1.0000   1.0000   0.0000   0.0000   0.0000   0.0000
     0.0000   0.0000

          k = 0.5500-0.1500 0.7500 (  1655 PWs)   bands (ev):

    -7.0902  -0.7742   1.2905   2.8459  10.3188  12.1123  14.0977  14.9571
    16.9790  19.2773

     occupation numbers 
     1.0000   1.0000   1.0000   1.0000   0.0000   0.0000   0.0000   0.0000
     0.0000   0.0000

          k = 0.5000-0.1000 0.7000 (  1652 PWs)   bands (ev):

    -7.1812  -0.6182   1.2535   3.0010  10.5463  12.0841  13.7257  15.0137
    16.8671  18.8361

     occupation numbers 
     1.0000   1.0000   1.0000   1.0000   0.0000   0.0000   0.0000   0.0000
     0.0000   0.0000

          k = 0.4500-0.0500 0.6500 (  1656 PWs)   bands (ev):

    -7.3539  -0.3519   1.3517   3.2015  10.8169  12.0813  12.9994  15.0830
    16.4810  19.2194

     occupation numbers 
     1.0000   1.0000   1.0000   1.0000   0.0000   0.0000   0.0000   0.0000
     0.0000   0.0000

          k = 0.4000 0.0000 0.6000 (  1658 PWs)   bands (ev):

    -7.5742  -0.0573   1.6293   3.4234  11.0885  12.0161  12.3958  14.9167
    16.0339  20.1432

     occupation numbers 
     1.0000   1.0000   1.0000   1.0000   0.0000   0.0000   0.0000   0.0000
     0.0000   0.0000

          k =-0.2000 0.7000-0.0000 (  1660 PWs)   bands (ev):

    -7.5138   0.0313   2.2007   2.6718   9.3923  10.4453  14.3104  16.4228
    17.2752  20.0933

     occupation numbers 
     1.0000   1.0000   1.0000   1.0000   0.0000   0.0000   0.0000   0.0000
     0.0000   0.0000

          k = 0.7500-0.2500 0.9500 (  1663 PWs)   bands (ev):

    -7.3051  -0.2620   1.8637   2.5113   9.5193  10.7657  14.1220  16.5861
    17.6609  20.6362

     occupation numbers 
     1.0000   1.0000   1.0000   1.0000   0.0000   0.0000   0.0000   0.0000
     0.0000   0.0000

          k = 0.7000-0.2000 0.9000 (  1659 PWs)   bands (ev):

    -7.1270  -0.4859   1.5061   2.4408   9.6306  11.3376  13.9606  16.3447
    17.8487  20.5484

     occupation numbers 
     1.0000   1.0000   1.0000   1.0000   0.0000   0.0000   0.0000   0.0000
     0.0000   0.0000

          k = 0.6500-0.1500 0.8500 (  1661 PWs)   bands (ev):

    -7.0091  -0.6074   1.1786   2.4650   9.7650  11.9898  13.8946  15.8821
    17.5811  20.1307

     occupation numbers 
     1.0000   1.0000   1.0000   1.0000   0.0000   0.0000   0.0000   0.0000
     0.0000   0.0000

          k = 0.6000-0.1000 0.8000 (  1652 PWs)   bands (ev):

    -6.9752  -0.6122   0.9386   2.5703   9.9506  12.4908  13.9765  15.2824
    17.2916  19.2711

     occupation numbers 
     1.0000   1.0000   1.0000   1.0000   0.0000   0.0000   0.0000   0.0000
     0.0000   0.0000

          k = 0.5500-0.0500 0.7500 (  1656 PWs)   bands (ev):

    -7.0323  -0.5281   0.8491   2.7408  10.1946  12.6954  13.7899  15.0892
    17.0592  18.5903

     occupation numbers 
     1.0000   1.0000   1.0000   1.0000   0.0000   0.0000   0.0000   0.0000
     0.0000   0.0000

          k = 0.5000-0.0000 0.7000 (  1651 PWs)   bands (ev):

    -7.1672  -0.4264   0.9808   2.9588  10.4912  12.6332  13.1895  15.3051
    16.6921  18.5656

     occupation numbers 
     1.0000   1.0000   1.0000   1.0000   0.0000   0.0000   0.0000   0.0000
     0.0000   0.0000

          k = 0.8000-0.2000 1.0000 (  1660 PWs)   bands (ev):

    -7.1939  -0.4021   1.9912   2.2991   9.0179  10.1650  15.1843  17.4954
    17.7898  20.5970

     occupation numbers 
     1.0000   1.0000   1.0000   1.0000   0.0000   0.0000   0.0000   0.0000
     0.0000   0.0000

          k = 0.7500-0.1500 0.9500 (  1660 PWs)   bands (ev):

    -7.0390  -0.5517   1.6412   2.1914   9.2174  10.5617  14.9797  17.1672
    18.1214  20.6284

     occupation numbers 
     1.0000   1.0000   1.0000   1.0000   0.0000   0.0000   0.0000   0.0000
     0.0000   0.0000

          k = 0.7000-0.1000 0.9000 (  1661 PWs)   bands (ev):

    -6.9333  -0.6033   1.2279   2.2177   9.4090  11.2118  14.7928  16.3777
    18.2001  20.1959

     occupation numbers 
     1.0000   1.0000   1.0000   1.0000   0.0000   0.0000   0.0000   0.0000
     0.0000   0.0000

          k = 0.6500-0.0500 0.8500 (  1655 PWs)   bands (ev):

    -6.8952  -0.5642   0.8782   2.3303   9.6223  11.9692  14.6339  15.4960
    18.0361  19.3358

     occupation numbers 
     1.0000   1.0000   1.0000   1.0000   0.0000   0.0000   0.0000   0.0000
     0.0000   0.0000

          k = 0.6000 0.0000 0.8000 (  1658 PWs)   bands (ev):

    -6.9309  -0.5035   0.7125   2.5101   9.8824  12.6115  14.2688  14.9887
    17.6443  18.7146

     occupation numbers 
     1.0000   1.0000   1.0000   1.0000   0.0000   0.0000   0.0000   0.0000
     0.0000   0.0000

          k = 0.8000-0.1000 1.0000 (  1661 PWs)   bands (ev):

    -6.9633  -0.6997   1.8776   2.0476   8.7816   9.9986  16.0897  17.6523
    18.6075  20.5505

     occupation numbers 
     1.0000   1.0000   1.0000   1.0000   0.0000   0.0000   0.0000   0.0000
     0.0000   0.0000

          k = 0.7500-0.0500 0.9500 (  1658 PWs)   bands (ev):

    -6.8867  -0.7104   1.5169   2.0309   9.0621  10.4600  15.8675  16.7084
    18.9959  20.1383

     occupation numbers 
     1.0000   1.0000   1.0000   1.0000   0.0000   0.0000   0.0000   0.0000
     0.0000   0.0000

          k = 0.7000 0.0000 0.9000 (  1656 PWs)   bands (ev):

    -6.8633  -0.6391   1.1214   2.1453   9.3340  11.1691  15.5603  15.7572
    18.7995  19.5434

     occupation numbers 
     1.0000   1.0000   1.0000   1.0000   0.0000   0.0000   0.0000   0.0000
     0.0000   0.0000

          k =-0.2000-1.0000 0.0000 (  1662 PWs)   bands (ev):

    -6.8782  -0.8073   1.8517   1.9495   8.7012   9.9436  16.9098  17.0290
    19.5468  19.9053

     occupation numbers 
     1.0000   1.0000   1.0000   1.0000   0.0000   0.0000   0.0000   0.0000
     0.0000   0.0000

          k =-0.3000 0.6000-0.0000 (  1661 PWs)   bands (ev):

    -7.7379   0.2418   2.0715   3.2942  10.6406  11.5262  12.4926  15.2233
    16.2646  20.2333

     occupation numbers 
     1.0000   1.0000   1.0000   1.0000   0.0000   0.0000   0.0000   0.0000
     0.0000   0.0000

          k = 0.6500-0.3500 0.9500 (  1656 PWs)   bands (ev):

    -7.5025  -0.1300   1.7513   3.0888  10.7242  11.7897  12.4506  15.4241
    16.6782  20.3771

     occupation numbers 
     1.0000   1.0000   1.0000   1.0000   0.0000   0.0000   0.0000   0.0000
     0.0000   0.0000

          k = 0.6000-0.3000 0.9000 (  1653 PWs)   bands (ev):

    -7.2936  -0.4742   1.5558   2.9046  10.7369  11.7626  12.9532  15.3509
    17.1246  19.7379

     occupation numbers 
     1.0000   1.0000   1.0000   1.0000   0.0000   0.0000   0.0000   0.0000
     0.0000   0.0000

          k = 0.5500-0.2500 0.8500 (  1659 PWs)   bands (ev):

    -7.1464  -0.7204   1.4566   2.7775  10.7431  11.6417  13.6527  15.1616
    17.1064  19.7985

     occupation numbers 
     1.0000   1.0000   1.0000   1.0000   0.0000   0.0000   0.0000   0.0000
     0.0000   0.0000

          k = 0.5000-0.2000 0.8000 (  1656 PWs)   bands (ev):

    -7.0928  -0.8099   1.4270   2.7322  10.7471  11.5913  14.0638  14.9790
    16.9650  20.1288

     occupation numbers 
     1.0000   1.0000   1.0000   1.0000   0.0000   0.0000   0.0000   0.0000
     0.0000   0.0000

          k = 0.7000-0.3000 1.0000 (  1657 PWs)   bands (ev):

    -7.4143  -0.1332   1.7837   2.7404  10.1709  11.2277  13.1377  16.3121
    16.9134  20.5697

     occupation numbers 
     1.0000   1.0000   1.0000   1.0000   0.0000   0.0000   0.0000   0.0000
     0.0000   0.0000

          k = 0.6500-0.2500 0.9500 (  1653 PWs)   bands (ev):

    -7.2154  -0.3694   1.4845   2.5379  10.3256  11.6440  12.9985  16.2799
    17.2337  20.0519

     occupation numbers 
     1.0000   1.0000   1.0000   1.0000   0.0000   0.0000   0.0000   0.0000
     0.0000   0.0000

          k = 0.6000-0.2000 0.9000 (  1660 PWs)   bands (ev):

    -7.0648  -0.5469   1.2616   2.4100  10.4314  12.0334  13.1309  15.7965
    17.3804  20.1506

     occupation numbers 
     1.0000   1.0000   1.0000   1.0000   0.0000   0.0000   0.0000   0.0000
     0.0000   0.0000

          k = 0.5500-0.1500 0.8500 (  1659 PWs)   bands (ev):

    -6.9914  -0.6267   1.1139   2.3853  10.5439  12.1209  13.6070  15.1820
    17.3055  20.3493

     occupation numbers 
     1.0000   1.0000   1.0000   1.0000   0.0000   0.0000   0.0000   0.0000
     0.0000   0.0000

          k = 0.5000-0.1000 0.8000 (  1658 PWs)   bands (ev):

    -7.0112  -0.5921   1.0570   2.4640  10.6732  12.1090  13.5918  15.1126
    17.2322  19.6712

     occupation numbers 
     1.0000   1.0000   1.0000   1.0000   0.0000   0.0000   0.0000   0.0000
     0.0000   0.0000

          k = 0.4500-0.0500 0.7500 (  1657 PWs)   bands (ev):

    -7.1195  -0.4659   1.1253   2.6279  10.7980  12.1360  12.9024  15.6287
    17.0612  19.2507

     occupation numbers 
     1.0000   1.0000   1.0000   1.0000   0.0000   0.0000   0.0000   0.0000
     0.0000   0.0000

          k = 0.4000 0.0000 0.7000 (  1653 PWs)   bands (ev):

    -7.2933  -0.2996   1.3557   2.8485  10.8581  12.1520  12.3034  15.8978
    16.6898  19.5663

     occupation numbers 
     1.0000   1.0000   1.0000   1.0000   0.0000   0.0000   0.0000   0.0000
     0.0000   0.0000

          k = 0.7000-0.2000 1.0000 (  1658 PWs)   bands (ev):

    -7.1275  -0.4175   1.5908   2.2452   9.8071  10.9975  13.9111  16.9733
    17.5292  20.3746

     occupation numbers 
     1.0000   1.0000   1.0000   1.0000   0.0000   0.0000   0.0000   0.0000
     0.0000   0.0000

          k = 0.6500-0.1500 0.9500 (  1657 PWs)   bands (ev):

    -6.9882  -0.5103   1.3029   2.0838  10.0445  11.5012  13.7399  16.2077
    17.9971  20.4000

     occupation numbers 
     1.0000   1.0000   1.0000   1.0000   0.0000   0.0000   0.0000   0.0000
     0.0000   0.0000

          k = 0.6000-0.1000 0.9000 (  1656 PWs)   bands (ev):

    -6.9106  -0.5301   1.0265   2.0702  10.2371  12.1117  13.6858  15.3066
    18.1167  20.3847

     occupation numbers 
     1.0000   1.0000   1.0000   1.0000   0.0000   0.0000   0.0000   0.0000
     0.0000   0.0000

          k = 0.5500-0.0500 0.8500 (  1655 PWs)   bands (ev):

    -6.9092  -0.4953   0.8513   2.1775  10.4321  12.5192  13.6663  14.7125
    17.9990  19.6477

     occupation numbers 
     1.0000   1.0000   1.0000   1.0000   0.0000   0.0000   0.0000   0.0000
     0.0000   0.0000

          k = 0.5000 0.0000 0.8000 (  1661 PWs)   bands (ev):

    -6.9838  -0.4623   0.8721   2.3735  10.6357  12.5707  13.1340  15.1044
    17.5938  19.1864

     occupation numbers 
     1.0000   1.0000   1.0000   1.0000   0.0000   0.0000   0.0000   0.0000
     0.0000   0.0000

          k = 0.7000-0.1000 1.0000 (  1659 PWs)   bands (ev):

    -6.9256  -0.5977   1.5061   1.8781   9.5815  10.8581  14.7625  16.4793
    18.6477  20.5297

     occupation numbers 
     1.0000   1.0000   1.0000   1.0000   0.0000   0.0000   0.0000   0.0000
     0.0000   0.0000

          k = 0.6500-0.0500 0.9500 (  1654 PWs)   bands (ev):

    -6.8613  -0.5699   1.2117   1.8225   9.9015  11.4243  14.5776  15.4587
    19.0180  20.2439

     occupation numbers 
     1.0000   1.0000   1.0000   1.0000   0.0000   0.0000   0.0000   0.0000
     0.0000   0.0000

          k = 0.6000 0.0000 0.9000 (  1653 PWs)   bands (ev):

    -6.8560  -0.5048   0.9258   1.9525  10.1713  12.1170  14.3085  14.6481
    18.7751  19.7853

     occupation numbers 
     1.0000   1.0000   1.0000   1.0000   0.0000   0.0000   0.0000   0.0000
     0.0000   0.0000

          k =-0.3000-1.0000 0.0000 (  1656 PWs)   bands (ev):

    -6.8522  -0.6599   1.5051   1.7215   9.5055  10.8116  15.6479  15.6526
    19.6554  19.9091

     occupation numbers 
     1.0000   1.0000   1.0000   1.0000   0.0000   0.0000   0.0000   0.0000
     0.0000   0.0000

          k = 0.6000-0.2000 1.0000 (  1649 PWs)   bands (ev):

    -7.0529  -0.4390   1.1919   2.2698  10.5960  12.0044  12.8433  15.9889
    17.5609  19.7658

     occupation numbers 
     1.0000   1.0000   1.0000   1.0000   0.0000   0.0000   0.0000   0.0000
     0.0000   0.0000

          k = 0.5500-0.1500 0.9500 (  1659 PWs)   bands (ev):

    -6.9416  -0.4843   1.0152   2.0774  10.7177  12.3590  13.0093  15.1714
    17.9891  20.0255

     occupation numbers 
     1.0000   1.0000   1.0000   1.0000   0.0000   0.0000   0.0000   0.0000
     0.0000   0.0000

          k = 0.5000-0.1000 0.9000 (  1654 PWs)   bands (ev):

    -6.9018  -0.5007   0.9575   2.0074  10.7493  12.4019  13.3900  14.6380
    18.1063  20.4742

     occupation numbers 
     1.0000   1.0000   1.0000   1.0000   0.0000   0.0000   0.0000   0.0000
     0.0000   0.0000

          k = 0.6000-0.1000 1.0000 (  1655 PWs)   bands (ev):

    -6.8892  -0.4960   1.1585   1.7867  10.4193  11.8997  13.5747  15.2857
    18.6996  20.3424

     occupation numbers 
     1.0000   1.0000   1.0000   1.0000   0.0000   0.0000   0.0000   0.0000
     0.0000   0.0000

          k = 0.5500-0.0500 0.9500 (  1648 PWs)   bands (ev):

    -6.8455  -0.4623   1.0195   1.6906  10.6537  12.4364  13.5180  14.3885
    19.0400  20.3136

     occupation numbers 
     1.0000   1.0000   1.0000   1.0000   0.0000   0.0000   0.0000   0.0000
     0.0000   0.0000

          k = 0.5000 0.0000 0.9000 (  1650 PWs)   bands (ev):

    -6.8642  -0.4481   0.9364   1.8144  10.7654  12.7168  13.1601  14.3907
    18.7440  20.0726

     occupation numbers 
     1.0000   1.0000   1.0000   1.0000   0.0000   0.0000   0.0000   0.0000
     0.0000   0.0000

          k =-0.4000-1.0000 0.0000 (  1652 PWs)   bands (ev):

    -6.8309  -0.5078   1.2058   1.5525  10.3584  11.8638  14.3780  14.4524
    19.7396  19.9154

     occupation numbers 
     1.0000   1.0000   1.0000   1.0000   0.0000   0.0000   0.0000   0.0000
     0.0000   0.0000

          k =-0.5000-1.0000 0.0000 (  1648 PWs)   bands (ev):

    -6.8227  -0.4365   1.0811   1.4909  10.8094  12.8151  13.3545  13.8882
    19.7727  19.9181

     occupation numbers 
     1.0000   1.0000   1.0000   1.0000   0.0000   0.0000   0.0000   0.0000
     0.0000   0.0000

     highest occupied, lowest unoccupied level (ev):     4.7848    7.9267

     Writing all to output data dir ./SCRATCH/zns.save/

     init_run     :      0.16s CPU      0.17s WALL (       1 calls)
     electrons    :     44.03s CPU     44.56s WALL (       1 calls)

     Called by init_run:
     wfcinit      :      0.00s CPU      0.00s WALL (       1 calls)
     wfcinit:atom :      0.06s CPU      0.10s WALL (     256 calls)
     wfcinit:wfcr :      3.50s CPU      3.53s WALL (     256 calls)
     potinit      :      0.00s CPU      0.01s WALL (       1 calls)
     hinit0       :      0.12s CPU      0.12s WALL (       1 calls)

     Called by electrons:
     c_bands      :     44.03s CPU     44.56s WALL (       1 calls)
     v_of_rho     :      0.00s CPU      0.00s WALL (       1 calls)
     v_h          :      0.00s CPU      0.00s WALL (       1 calls)
     v_xc         :      0.00s CPU      0.00s WALL (       1 calls)

     Called by c_bands:
     init_us_2    :      0.06s CPU      0.08s WALL (     256 calls)
     init_us_2:cp :      0.06s CPU      0.08s WALL (     256 calls)
     cegterg      :     39.97s CPU     40.41s WALL (     457 calls)

     Called by sum_band:

     Called by *egterg:
     cdiaghg      :      0.55s CPU      0.58s WALL (    6825 calls)
     cegterg:over :      2.64s CPU      2.77s WALL (    6569 calls)
     cegterg:upda :      1.23s CPU      1.24s WALL (    6569 calls)
     cegterg:last :      1.97s CPU      2.29s WALL (    4782 calls)
     h_psi        :     36.19s CPU     35.99s WALL (    7282 calls)
     g_psi        :      0.16s CPU      0.21s WALL (    6569 calls)

     Called by h_psi:
     h_psi:calbec :      1.78s CPU      1.73s WALL (    7282 calls)
     vloc_psi     :     32.95s CPU     32.86s WALL (    7282 calls)
     add_vuspsi   :      1.31s CPU      1.25s WALL (    7282 calls)

     General routines
     calbec       :      1.77s CPU      1.70s WALL (    7282 calls)
     fft          :      0.00s CPU      0.00s WALL (       3 calls)
     fftw         :     29.94s CPU     29.76s WALL (  104946 calls)
     davcio       :      0.00s CPU      0.04s WALL (     512 calls)


     PWSCF        :     44.25s CPU     44.92s WALL


   This run was terminated on:  18: 3:23  30May2024            

=------------------------------------------------------------------------------=
   JOB DONE.
=------------------------------------------------------------------------------=
