
     Program PWSCF v.7.2 starts on 30May2024 at 17:54: 4 

     This program is part of the open-source Quantum ESPRESSO suite
     for quantum simulation of materials; please cite
         "P. Giannozzi et al., J. Phys.:Condens. Matter 21 395502 (2009);
         "P. Giannozzi et al., J. Phys.:Condens. Matter 29 465901 (2017);
         "P. Giannozzi et al., J. Chem. Phys. 152 154105 (2020);
          URL http://www.quantum-espresso.org", 
     in publications or presentations arising from this work. More details at
     http://www.quantum-espresso.org/quote

     Serial version
     8975 MiB available memory on the printing compute node when the environment starts

     Waiting for input...
     Reading input from standard input

     Current dimensions of program PWSCF are:
     Max number of different atomic species (ntypx) = 10
     Max number of k-points (npk) =  40000
     Max angular momentum in pseudopotentials (lmaxx) =  4


     G-vector sticks info
     --------------------
     sticks:   dense  smooth     PW     G-vecs:    dense   smooth      PW
     Sum         745     745    223                13323    13323    2229

     Using Slab Decomposition



     bravais-lattice index     =            2
     lattice parameter (alat)  =       9.4519  a.u.
     unit-cell volume          =     211.1021 (a.u.)^3
     number of atoms/cell      =            2
     number of atomic types    =            2
     number of electrons       =         8.00
     number of Kohn-Sham states=            4
     kinetic-energy cutoff     =      60.0000  Ry
     charge density cutoff     =     240.0000  Ry
     scf convergence threshold =      1.0E-08
     mixing beta               =       0.7000
     number of iterations used =            8  plain     mixing
     Exchange-correlation= SLA-PZ-NOGX-NOGC
                           (   1   1   0   0   0   0   0)

     celldm(1)=   9.451865  celldm(2)=   0.000000  celldm(3)=   0.000000
     celldm(4)=   0.000000  celldm(5)=   0.000000  celldm(6)=   0.000000

     crystal axes: (cart. coord. in units of alat)
               a(1) = (  -0.500000   0.000000   0.500000 )  
               a(2) = (   0.000000   0.500000   0.500000 )  
               a(3) = (  -0.500000   0.500000   0.000000 )  

     reciprocal axes: (cart. coord. in units 2 pi/alat)
               b(1) = ( -1.000000 -1.000000  1.000000 )  
               b(2) = (  1.000000  1.000000  1.000000 )  
               b(3) = ( -1.000000  1.000000 -1.000000 )  


     PseudoPot. # 1 for Zn read from file:
     /home/paolo/project_labqsm/pseudopotentials/Zn.pz-hgh.UPF
     MD5 check sum: c1979979258da2eeca1fc2dcb474678d
     Pseudo is Norm-conserving, Zval =  2.0
     Generated in analytical, separable form
     Using radial grid of 1201 points,  6 beta functions with: 
                l(1) =   0
                l(2) =   0
                l(3) =   0
                l(4) =   1
                l(5) =   1
                l(6) =   2

     PseudoPot. # 2 for S  read from file:
     /home/paolo/project_labqsm/pseudopotentials/S.pz-hgh.UPF
     MD5 check sum: a0679cb0a74c01c481c24d5fd31ffa9b
     Pseudo is Norm-conserving, Zval =  6.0
     Generated in analytical, separable form
     Using radial grid of 1151 points,  3 beta functions with: 
                l(1) =   0
                l(2) =   0
                l(3) =   1

     atomic species   valence    mass     pseudopotential
        Zn             2.00    65.38000     Zn( 1.00)
        S              6.00    32.06000     S ( 1.00)

     24 Sym. Ops. (no inversion) found



   Cartesian axes

     site n.     atom                  positions (alat units)
         1           Zn  tau(   1) = (   0.0000000   0.0000000   0.0000000  )
         2           S   tau(   2) = (   0.2500000   0.2500000   0.2500000  )

     number of k points=    29
                       cart. coord. in units 2pi/alat
        k(    1) = (   0.0000000   0.0000000   0.0000000), wk =   0.0039062
        k(    2) = (  -0.1250000   0.1250000  -0.1250000), wk =   0.0312500
        k(    3) = (  -0.2500000   0.2500000  -0.2500000), wk =   0.0312500
        k(    4) = (  -0.3750000   0.3750000  -0.3750000), wk =   0.0312500
        k(    5) = (   0.5000000  -0.5000000   0.5000000), wk =   0.0156250
        k(    6) = (   0.0000000   0.2500000   0.0000000), wk =   0.0234375
        k(    7) = (  -0.1250000   0.3750000  -0.1250000), wk =   0.0937500
        k(    8) = (  -0.2500000   0.5000000  -0.2500000), wk =   0.0937500
        k(    9) = (   0.6250000  -0.3750000   0.6250000), wk =   0.0937500
        k(   10) = (   0.5000000  -0.2500000   0.5000000), wk =   0.0937500
        k(   11) = (   0.3750000  -0.1250000   0.3750000), wk =   0.0937500
        k(   12) = (   0.2500000   0.0000000   0.2500000), wk =   0.0468750
        k(   13) = (   0.0000000   0.5000000   0.0000000), wk =   0.0234375
        k(   14) = (  -0.1250000   0.6250000  -0.1250000), wk =   0.0937500
        k(   15) = (   0.7500000  -0.2500000   0.7500000), wk =   0.0937500
        k(   16) = (   0.6250000  -0.1250000   0.6250000), wk =   0.0937500
        k(   17) = (   0.5000000   0.0000000   0.5000000), wk =   0.0468750
        k(   18) = (   0.0000000   0.7500000   0.0000000), wk =   0.0234375
        k(   19) = (   0.8750000  -0.1250000   0.8750000), wk =   0.0937500
        k(   20) = (   0.7500000   0.0000000   0.7500000), wk =   0.0468750
        k(   21) = (   0.0000000  -1.0000000   0.0000000), wk =   0.0117188
        k(   22) = (  -0.2500000   0.5000000   0.0000000), wk =   0.0937500
        k(   23) = (   0.6250000  -0.3750000   0.8750000), wk =   0.1875000
        k(   24) = (   0.5000000  -0.2500000   0.7500000), wk =   0.0937500
        k(   25) = (   0.7500000  -0.2500000   1.0000000), wk =   0.0937500
        k(   26) = (   0.6250000  -0.1250000   0.8750000), wk =   0.1875000
        k(   27) = (   0.5000000   0.0000000   0.7500000), wk =   0.0937500
        k(   28) = (  -0.2500000  -1.0000000   0.0000000), wk =   0.0468750
        k(   29) = (  -0.5000000  -1.0000000   0.0000000), wk =   0.0234375

     Dense  grid:    13323 G-vectors     FFT dimensions: (  36,  36,  36)

     Estimated max dynamical RAM per process >      16.07 MB

     Initial potential from superposition of free atoms

     starting charge       6.0000, renormalised to       8.0000
     Starting wfcs are   18 randomized atomic wfcs

     total cpu time spent up to now is        0.6 secs

     Self-consistent Calculation

     iteration #  1     ecut=    60.00 Ry     beta= 0.70
     Davidson diagonalization with overlap
     ethr =  1.00E-02,  avg # of iterations =  2.0

     total cpu time spent up to now is        0.9 secs

     total energy              =     -22.80595176 Ry
     estimated scf accuracy    <       0.41499488 Ry

     iteration #  2     ecut=    60.00 Ry     beta= 0.70
     Davidson diagonalization with overlap
     ethr =  5.19E-03,  avg # of iterations =  2.0

     total cpu time spent up to now is        1.2 secs

     total energy              =     -22.92394451 Ry
     estimated scf accuracy    <       0.03964677 Ry

     iteration #  3     ecut=    60.00 Ry     beta= 0.70
     Davidson diagonalization with overlap
     ethr =  4.96E-04,  avg # of iterations =  2.0

     total cpu time spent up to now is        1.5 secs

     total energy              =     -22.92808531 Ry
     estimated scf accuracy    <       0.00122515 Ry

     iteration #  4     ecut=    60.00 Ry     beta= 0.70
     Davidson diagonalization with overlap
     ethr =  1.53E-05,  avg # of iterations =  2.2

     total cpu time spent up to now is        1.9 secs

     total energy              =     -22.92846225 Ry
     estimated scf accuracy    <       0.00035354 Ry

     iteration #  5     ecut=    60.00 Ry     beta= 0.70
     Davidson diagonalization with overlap
     ethr =  4.42E-06,  avg # of iterations =  2.0

     total cpu time spent up to now is        2.2 secs

     total energy              =     -22.92849487 Ry
     estimated scf accuracy    <       0.00001436 Ry

     iteration #  6     ecut=    60.00 Ry     beta= 0.70
     Davidson diagonalization with overlap
     ethr =  1.80E-07,  avg # of iterations =  2.8

     total cpu time spent up to now is        2.5 secs

     total energy              =     -22.92850017 Ry
     estimated scf accuracy    <       0.00000002 Ry

     iteration #  7     ecut=    60.00 Ry     beta= 0.70
     Davidson diagonalization with overlap
     ethr =  1.91E-10,  avg # of iterations =  6.6

     total cpu time spent up to now is        3.1 secs

     total energy              =     -22.92850031 Ry
     estimated scf accuracy    <       0.00000016 Ry

     iteration #  8     ecut=    60.00 Ry     beta= 0.70
     Davidson diagonalization with overlap
     ethr =  1.91E-10,  avg # of iterations =  2.4

     total cpu time spent up to now is        3.4 secs

     total energy              =     -22.92850031 Ry
     estimated scf accuracy    <       0.00000001 Ry

     iteration #  9     ecut=    60.00 Ry     beta= 0.70
     Davidson diagonalization with overlap
     ethr =  1.73E-10,  avg # of iterations =  2.0

     total cpu time spent up to now is        3.8 secs

     End of self-consistent calculation

          k = 0.0000 0.0000 0.0000 (  1639 PWs)   bands (ev):

    -9.2543   4.7848   4.7848   4.7848

          k =-0.1250 0.1250-0.1250 (  1669 PWs)   bands (ev):

    -9.0749   3.4892   4.6167   4.6167

          k =-0.2500 0.2500-0.2500 (  1654 PWs)   bands (ev):

    -8.5669   1.2464   4.2653   4.2653

          k =-0.3750 0.3750-0.3750 (  1655 PWs)   bands (ev):

    -7.8879  -0.6892   3.9684   3.9684

          k = 0.5000-0.5000 0.5000 (  1676 PWs)   bands (ev):

    -7.5139  -1.5122   3.8573   3.8573

          k = 0.0000 0.2500 0.0000 (  1667 PWs)   bands (ev):

    -9.0150   3.6234   4.2720   4.2720

          k =-0.1250 0.3750-0.1250 (  1654 PWs)   bands (ev):

    -8.6147   1.9134   3.8335   3.9452

          k =-0.2500 0.5000-0.2500 (  1660 PWs)   bands (ev):

    -7.9754  -0.0351   3.4504   3.5588

          k = 0.6250-0.3750 0.6250 (  1662 PWs)   bands (ev):

    -7.4452  -1.2420   3.0204   3.5574

          k = 0.5000-0.2500 0.5000 (  1658 PWs)   bands (ev):

    -7.5744  -0.9684   2.8464   3.8199

          k = 0.3750-0.1250 0.3750 (  1652 PWs)   bands (ev):

    -8.2038   0.5713   3.0297   4.2377

          k = 0.2500 0.0000 0.2500 (  1650 PWs)   bands (ev):

    -8.7843   2.4007   3.6969   4.5930

          k = 0.0000 0.5000 0.0000 (  1636 PWs)   bands (ev):

    -8.3366   1.6613   3.2954   3.2954

          k =-0.1250 0.6250-0.1250 (  1659 PWs)   bands (ev):

    -7.8021   0.4169   2.6298   2.9547

          k = 0.7500-0.2500 0.7500 (  1661 PWs)   bands (ev):

    -7.2557  -0.6468   1.7676   2.9427

          k = 0.6250-0.1250 0.6250 (  1654 PWs)   bands (ev):

    -7.1656  -0.7676   1.2544   3.2598

          k = 0.5000 0.0000 0.5000 (  1658 PWs)   bands (ev):

    -7.6317  -0.0525   1.5732   3.7834

          k = 0.0000 0.7500 0.0000 (  1664 PWs)   bands (ev):

    -7.4215  -0.1200   2.5213   2.5213

          k = 0.8750-0.1250 0.8750 (  1656 PWs)   bands (ev):

    -7.0217  -0.6642   1.7468   2.4297

          k = 0.7500 0.0000 0.7500 (  1666 PWs)   bands (ev):

    -6.9049  -0.6012   0.7560   2.7080

          k = 0.0000-1.0000 0.0000 (  1660 PWs)   bands (ev):

    -6.9068  -0.9415   2.2380   2.2380

          k =-0.2500 0.5000 0.0000 (  1654 PWs)   bands (ev):

    -8.1410   0.9134   2.6541   3.7408

          k = 0.6250-0.3750 0.8750 (  1649 PWs)   bands (ev):

    -7.5266  -0.3659   2.0072   3.2911

          k = 0.5000-0.2500 0.7500 (  1644 PWs)   bands (ev):

    -7.2013  -1.0002   1.8637   3.0619

          k = 0.7500-0.2500 1.0000 (  1662 PWs)   bands (ev):

    -7.3077  -0.2407   1.8851   2.4689

          k = 0.6250-0.1250 0.8750 (  1658 PWs)   bands (ev):

    -6.9564  -0.5703   1.0855   2.2721

          k = 0.5000 0.0000 0.7500 (  1651 PWs)   bands (ev):

    -7.0688  -0.4541   0.9067   2.6702

          k =-0.2500-1.0000 0.0000 (  1662 PWs)   bands (ev):

    -6.8653  -0.7378   1.6798   1.8325

          k =-0.5000-1.0000 0.0000 (  1648 PWs)   bands (ev):

    -6.8228  -0.4365   1.0810   1.4909

     highest occupied level (ev):     4.7848

!    total energy              =     -22.92850032 Ry
     estimated scf accuracy    <          1.4E-10 Ry

     The total energy is the sum of the following terms:
     one-electron contribution =       1.24381921 Ry
     hartree contribution      =       2.89746655 Ry
     xc contribution           =      -5.63053025 Ry
     ewald contribution        =     -21.43925583 Ry

     convergence has been achieved in   9 iterations

     Writing all to output data dir ./SCRATCH/zns.save/

     init_run     :      0.58s CPU      0.58s WALL (       1 calls)
     electrons    :      3.06s CPU      3.16s WALL (       1 calls)

     Called by init_run:
     wfcinit      :      0.44s CPU      0.44s WALL (       1 calls)
     potinit      :      0.02s CPU      0.01s WALL (       1 calls)
     hinit0       :      0.11s CPU      0.12s WALL (       1 calls)

     Called by electrons:
     c_bands      :      2.64s CPU      2.70s WALL (       9 calls)
     sum_band     :      0.42s CPU      0.42s WALL (       9 calls)
     v_of_rho     :      0.00s CPU      0.02s WALL (      10 calls)
     mix_rho      :      0.00s CPU      0.02s WALL (       9 calls)

     Called by c_bands:
     init_us_2    :      0.14s CPU      0.17s WALL (     551 calls)
     init_us_2:cp :      0.14s CPU      0.17s WALL (     551 calls)
     cegterg      :      2.47s CPU      2.48s WALL (     261 calls)

     Called by *egterg:
     cdiaghg      :      0.05s CPU      0.02s WALL (     953 calls)
     h_psi        :      2.62s CPU      2.62s WALL (     982 calls)
     g_psi        :      0.00s CPU      0.01s WALL (     692 calls)

     Called by h_psi:
     h_psi:calbec :      0.17s CPU      0.13s WALL (     982 calls)
     vloc_psi     :      2.34s CPU      2.38s WALL (     982 calls)
     add_vuspsi   :      0.09s CPU      0.09s WALL (     982 calls)

     General routines
     calbec       :      0.16s CPU      0.13s WALL (     982 calls)
     fft          :      0.00s CPU      0.01s WALL (      29 calls)
     ffts         :      0.00s CPU      0.00s WALL (       9 calls)
     fftw         :      2.41s CPU      2.41s WALL (    8794 calls)


     PWSCF        :      3.69s CPU      3.79s WALL


   This run was terminated on:  17:54: 8  30May2024            

=------------------------------------------------------------------------------=
   JOB DONE.
=------------------------------------------------------------------------------=
