
     Program PWSCF v.7.2 starts on  5May2024 at  9:47: 3 

     This program is part of the open-source Quantum ESPRESSO suite
     for quantum simulation of materials; please cite
         "P. Giannozzi et al., J. Phys.:Condens. Matter 21 395502 (2009);
         "P. Giannozzi et al., J. Phys.:Condens. Matter 29 465901 (2017);
         "P. Giannozzi et al., J. Chem. Phys. 152 154105 (2020);
          URL http://www.quantum-espresso.org", 
     in publications or presentations arising from this work. More details at
     http://www.quantum-espresso.org/quote

     Serial version
     9478 MiB available memory on the printing compute node when the environment starts

     Waiting for input...
     Reading input from standard input

     Current dimensions of program PWSCF are:
     Max number of different atomic species (ntypx) = 10
     Max number of k-points (npk) =  40000
     Max angular momentum in pseudopotentials (lmaxx) =  4


     G-vector sticks info
     --------------------
     sticks:   dense  smooth     PW     G-vecs:    dense   smooth      PW
     Sum         583     583    187                 9257     9257    1591

     Using Slab Decomposition



     bravais-lattice index     =            2
     lattice parameter (alat)  =      10.2631  a.u.
     unit-cell volume          =     270.2564 (a.u.)^3
     number of atoms/cell      =            1
     number of atomic types    =            1
     number of electrons       =         4.00
     number of Kohn-Sham states=            2
     kinetic-energy cutoff     =      40.0000  Ry
     charge density cutoff     =     160.0000  Ry
     scf convergence threshold =      1.0E-08
     mixing beta               =       0.7000
     number of iterations used =            8  plain     mixing
     Exchange-correlation=  SLA  PZ   NOGX NOGC
                           (   1   1   0   0   0   0   0)

     celldm(1)=  10.263102  celldm(2)=   0.000000  celldm(3)=   0.000000
     celldm(4)=   0.000000  celldm(5)=   0.000000  celldm(6)=   0.000000

     crystal axes: (cart. coord. in units of alat)
               a(1) = (  -0.500000   0.000000   0.500000 )  
               a(2) = (   0.000000   0.500000   0.500000 )  
               a(3) = (  -0.500000   0.500000   0.000000 )  

     reciprocal axes: (cart. coord. in units 2 pi/alat)
               b(1) = ( -1.000000 -1.000000  1.000000 )  
               b(2) = (  1.000000  1.000000  1.000000 )  
               b(3) = ( -1.000000  1.000000 -1.000000 )  


     PseudoPot. # 1 for Si read from file:
     /home/paolo/project_labqsm/pseudopotentials/Si.pz-vbc.UPF
     MD5 check sum: dc3b11d017da532b29132e08c0a6883c
     Pseudo is Norm-conserving, Zval =  4.0
     Generated by new atomic code, or converted to UPF format
     Using radial grid of  431 points,  2 beta functions with: 
                l(1) =   0
                l(2) =   1

     atomic species   valence    mass     pseudopotential
        Si             4.00    12.01100     Si( 1.00)

     48 Sym. Ops., with inversion, found



   Cartesian axes

     site n.     atom                  positions (alat units)
         1           Si  tau(   1) = (   0.0000000   0.0000000   0.0000000  )

     number of k points=     8
                       cart. coord. in units 2pi/alat
        k(    1) = (   0.0000000   0.0000000   0.0000000), wk =   0.0312500
        k(    2) = (  -0.2500000   0.2500000  -0.2500000), wk =   0.2500000
        k(    3) = (   0.5000000  -0.5000000   0.5000000), wk =   0.1250000
        k(    4) = (   0.0000000   0.5000000   0.0000000), wk =   0.1875000
        k(    5) = (   0.7500000  -0.2500000   0.7500000), wk =   0.7500000
        k(    6) = (   0.5000000   0.0000000   0.5000000), wk =   0.3750000
        k(    7) = (   0.0000000  -1.0000000   0.0000000), wk =   0.0937500
        k(    8) = (  -0.5000000  -1.0000000   0.0000000), wk =   0.1875000

     Dense  grid:     9257 G-vectors     FFT dimensions: (  30,  30,  30)

     Estimated max dynamical RAM per process >       6.32 MB

     Initial potential from superposition of free atoms

     starting charge       3.9995, renormalised to       4.0000
     Starting wfcs are    4 randomized atomic wfcs

     total cpu time spent up to now is        0.1 secs

     Self-consistent Calculation

     iteration #  1     ecut=    40.00 Ry     beta= 0.70
     Davidson diagonalization with overlap
     ethr =  1.00E-02,  avg # of iterations =  1.0

     Threshold (ethr) on eigenvalues was too large:
     Diagonalizing with lowered threshold

     Davidson diagonalization with overlap
     ethr =  6.14E-05,  avg # of iterations =  2.9

     total cpu time spent up to now is        0.1 secs

     total energy              =      -7.69280500 Ry
     estimated scf accuracy    <       0.00275088 Ry

     iteration #  2     ecut=    40.00 Ry     beta= 0.70
     Davidson diagonalization with overlap
     ethr =  6.88E-05,  avg # of iterations =  1.1

     total cpu time spent up to now is        0.1 secs

     total energy              =      -7.69302404 Ry
     estimated scf accuracy    <       0.00005784 Ry

     iteration #  3     ecut=    40.00 Ry     beta= 0.70
     Davidson diagonalization with overlap
     ethr =  1.45E-06,  avg # of iterations =  2.2

     total cpu time spent up to now is        0.2 secs

     total energy              =      -7.69304480 Ry
     estimated scf accuracy    <       0.00000151 Ry

     iteration #  4     ecut=    40.00 Ry     beta= 0.70
     Davidson diagonalization with overlap
     ethr =  3.78E-08,  avg # of iterations =  3.0

     total cpu time spent up to now is        0.2 secs

     total energy              =      -7.69304727 Ry
     estimated scf accuracy    <       0.00000010 Ry

     iteration #  5     ecut=    40.00 Ry     beta= 0.70
     Davidson diagonalization with overlap
     ethr =  2.45E-09,  avg # of iterations =  3.5

     total cpu time spent up to now is        0.3 secs

     End of self-consistent calculation

          k = 0.0000 0.0000 0.0000 (  1139 PWs)   bands (ev):

    -6.9552   4.4245

          k =-0.2500 0.2500-0.2500 (  1164 PWs)   bands (ev):

    -6.2488   1.3902

          k = 0.5000-0.5000 0.5000 (  1158 PWs)   bands (ev):

    -5.0983  -1.1224

          k = 0.0000 0.5000 0.0000 (  1174 PWs)   bands (ev):

    -6.0095   1.8720

          k = 0.7500-0.2500 0.7500 (  1156 PWs)   bands (ev):

    -4.8345  -0.2399

          k = 0.5000 0.0000 0.5000 (  1159 PWs)   bands (ev):

    -5.2612   0.3697

          k = 0.0000-1.0000 0.0000 (  1162 PWs)   bands (ev):

    -4.4066  -0.5861

          k =-0.5000-1.0000 0.0000 (  1144 PWs)   bands (ev):

    -4.3345   0.4550

     highest occupied level (ev):     4.4245

!    total energy              =      -7.69304732 Ry
     estimated scf accuracy    <          8.6E-09 Ry

     The total energy is the sum of the following terms:
     one-electron contribution =       1.02176497 Ry
     hartree contribution      =       0.44170143 Ry
     xc contribution           =      -2.00879223 Ry
     ewald contribution        =      -7.14772149 Ry

     convergence has been achieved in   5 iterations

     Writing all to output data dir ./SCRATCH/silicon.save/

     init_run     :      0.05s CPU      0.05s WALL (       1 calls)
     electrons    :      0.16s CPU      0.19s WALL (       1 calls)

     Called by init_run:
     wfcinit      :      0.02s CPU      0.02s WALL (       1 calls)
     potinit      :      0.00s CPU      0.01s WALL (       1 calls)
     hinit0       :      0.02s CPU      0.01s WALL (       1 calls)

     Called by electrons:
     c_bands      :      0.12s CPU      0.14s WALL (       6 calls)
     sum_band     :      0.03s CPU      0.03s WALL (       6 calls)
     v_of_rho     :      0.00s CPU      0.01s WALL (       6 calls)
     mix_rho      :      0.00s CPU      0.01s WALL (       6 calls)

     Called by c_bands:
     init_us_2    :      0.00s CPU      0.01s WALL (     104 calls)
     init_us_2:cp :      0.00s CPU      0.01s WALL (     104 calls)
     cegterg      :      0.12s CPU      0.13s WALL (      48 calls)

     Called by *egterg:
     cdiaghg      :      0.00s CPU      0.00s WALL (     150 calls)
     h_psi        :      0.11s CPU      0.13s WALL (     166 calls)
     g_psi        :      0.00s CPU      0.00s WALL (     110 calls)

     Called by h_psi:
     h_psi:calbec :      0.00s CPU      0.00s WALL (     166 calls)
     vloc_psi     :      0.11s CPU      0.13s WALL (     166 calls)
     add_vuspsi   :      0.00s CPU      0.00s WALL (     166 calls)

     General routines
     calbec       :      0.00s CPU      0.00s WALL (     166 calls)
     fft          :      0.00s CPU      0.01s WALL (      18 calls)
     ffts         :      0.00s CPU      0.00s WALL (       6 calls)
     fftw         :      0.11s CPU      0.13s WALL (     718 calls)


     PWSCF        :      0.20s CPU      0.26s WALL


   This run was terminated on:   9:47: 3   5May2024            

=------------------------------------------------------------------------------=
   JOB DONE.
=------------------------------------------------------------------------------=
