
     Program PWSCF v.7.2 starts on 12May2024 at 11:54:49 

     This program is part of the open-source Quantum ESPRESSO suite
     for quantum simulation of materials; please cite
         "P. Giannozzi et al., J. Phys.:Condens. Matter 21 395502 (2009);
         "P. Giannozzi et al., J. Phys.:Condens. Matter 29 465901 (2017);
         "P. Giannozzi et al., J. Chem. Phys. 152 154105 (2020);
          URL http://www.quantum-espresso.org", 
     in publications or presentations arising from this work. More details at
     http://www.quantum-espresso.org/quote

     Serial version
     8826 MiB available memory on the printing compute node when the environment starts

     Waiting for input...
     Reading input from standard input

     Current dimensions of program PWSCF are:
     Max number of different atomic species (ntypx) = 10
     Max number of k-points (npk) =  40000
     Max angular momentum in pseudopotentials (lmaxx) =  4


     G-vector sticks info
     --------------------
     sticks:   dense  smooth     PW     G-vecs:    dense   smooth      PW
     Sum         859     859    253                16889    16889    2741

     Using Slab Decomposition



     bravais-lattice index     =            2
     lattice parameter (alat)  =      10.2631  a.u.
     unit-cell volume          =     270.2564 (a.u.)^3
     number of atoms/cell      =            2
     number of atomic types    =            1
     number of electrons       =         8.00
     number of Kohn-Sham states=            4
     kinetic-energy cutoff     =      60.0000  Ry
     charge density cutoff     =     240.0000  Ry
     scf convergence threshold =      1.0E-08
     mixing beta               =       0.7000
     number of iterations used =            8  plain     mixing
     Exchange-correlation=  SLA  PZ   NOGX NOGC
                           (   1   1   0   0   0   0   0)

     celldm(1)=  10.263102  celldm(2)=   0.000000  celldm(3)=   0.000000
     celldm(4)=   0.000000  celldm(5)=   0.000000  celldm(6)=   0.000000

     crystal axes: (cart. coord. in units of alat)
               a(1) = (  -0.500000   0.000000   0.500000 )  
               a(2) = (   0.000000   0.500000   0.500000 )  
               a(3) = (  -0.500000   0.500000   0.000000 )  

     reciprocal axes: (cart. coord. in units 2 pi/alat)
               b(1) = ( -1.000000 -1.000000  1.000000 )  
               b(2) = (  1.000000  1.000000  1.000000 )  
               b(3) = ( -1.000000  1.000000 -1.000000 )  


     PseudoPot. # 1 for Si read from file:
     /home/paolo/project_labqsm/pseudopotentials/Si.pz-vbc.UPF
     MD5 check sum: dc3b11d017da532b29132e08c0a6883c
     Pseudo is Norm-conserving, Zval =  4.0
     Generated by new atomic code, or converted to UPF format
     Using radial grid of  431 points,  2 beta functions with: 
                l(1) =   0
                l(2) =   1

     atomic species   valence    mass     pseudopotential
        Si             4.00    12.01100     Si( 1.00)

     48 Sym. Ops., with inversion, found (24 have fractional translation)



   Cartesian axes

     site n.     atom                  positions (alat units)
         1           Si  tau(   1) = (   0.0000000   0.0000000   0.0000000  )
         2           Si  tau(   2) = (   0.2500000   0.2500000   0.2500000  )

     number of k points=    29
                       cart. coord. in units 2pi/alat
        k(    1) = (   0.0000000   0.0000000   0.0000000), wk =   0.0039062
        k(    2) = (  -0.1250000   0.1250000  -0.1250000), wk =   0.0312500
        k(    3) = (  -0.2500000   0.2500000  -0.2500000), wk =   0.0312500
        k(    4) = (  -0.3750000   0.3750000  -0.3750000), wk =   0.0312500
        k(    5) = (   0.5000000  -0.5000000   0.5000000), wk =   0.0156250
        k(    6) = (   0.0000000   0.2500000   0.0000000), wk =   0.0234375
        k(    7) = (  -0.1250000   0.3750000  -0.1250000), wk =   0.0937500
        k(    8) = (  -0.2500000   0.5000000  -0.2500000), wk =   0.0937500
        k(    9) = (   0.6250000  -0.3750000   0.6250000), wk =   0.0937500
        k(   10) = (   0.5000000  -0.2500000   0.5000000), wk =   0.0937500
        k(   11) = (   0.3750000  -0.1250000   0.3750000), wk =   0.0937500
        k(   12) = (   0.2500000   0.0000000   0.2500000), wk =   0.0468750
        k(   13) = (   0.0000000   0.5000000   0.0000000), wk =   0.0234375
        k(   14) = (  -0.1250000   0.6250000  -0.1250000), wk =   0.0937500
        k(   15) = (   0.7500000  -0.2500000   0.7500000), wk =   0.0937500
        k(   16) = (   0.6250000  -0.1250000   0.6250000), wk =   0.0937500
        k(   17) = (   0.5000000   0.0000000   0.5000000), wk =   0.0468750
        k(   18) = (   0.0000000   0.7500000   0.0000000), wk =   0.0234375
        k(   19) = (   0.8750000  -0.1250000   0.8750000), wk =   0.0937500
        k(   20) = (   0.7500000   0.0000000   0.7500000), wk =   0.0468750
        k(   21) = (   0.0000000  -1.0000000   0.0000000), wk =   0.0117188
        k(   22) = (  -0.2500000   0.5000000   0.0000000), wk =   0.0937500
        k(   23) = (   0.6250000  -0.3750000   0.8750000), wk =   0.1875000
        k(   24) = (   0.5000000  -0.2500000   0.7500000), wk =   0.0937500
        k(   25) = (   0.7500000  -0.2500000   1.0000000), wk =   0.0937500
        k(   26) = (   0.6250000  -0.1250000   0.8750000), wk =   0.1875000
        k(   27) = (   0.5000000   0.0000000   0.7500000), wk =   0.0937500
        k(   28) = (  -0.2500000  -1.0000000   0.0000000), wk =   0.0468750
        k(   29) = (  -0.5000000  -1.0000000   0.0000000), wk =   0.0234375

     Dense  grid:    16889 G-vectors     FFT dimensions: (  36,  36,  36)

     Estimated max dynamical RAM per process >      15.00 MB

     Initial potential from superposition of free atoms

     starting charge       7.9990, renormalised to       8.0000
     Starting wfcs are    8 randomized atomic wfcs

     total cpu time spent up to now is        0.3 secs

     Self-consistent Calculation

     iteration #  1     ecut=    60.00 Ry     beta= 0.70
     Davidson diagonalization with overlap
     ethr =  1.00E-02,  avg # of iterations =  2.0

     Threshold (ethr) on eigenvalues was too large:
     Diagonalizing with lowered threshold

     Davidson diagonalization with overlap
     ethr =  6.73E-04,  avg # of iterations =  1.2

     total cpu time spent up to now is        0.8 secs

     total energy              =     -15.84957807 Ry
     estimated scf accuracy    <       0.05926073 Ry

     iteration #  2     ecut=    60.00 Ry     beta= 0.70
     Davidson diagonalization with overlap
     ethr =  7.41E-04,  avg # of iterations =  1.0

     total cpu time spent up to now is        1.0 secs

     total energy              =     -15.85262314 Ry
     estimated scf accuracy    <       0.00221202 Ry

     iteration #  3     ecut=    60.00 Ry     beta= 0.70
     Davidson diagonalization with overlap
     ethr =  2.77E-05,  avg # of iterations =  2.3

     total cpu time spent up to now is        1.3 secs

     total energy              =     -15.85309163 Ry
     estimated scf accuracy    <       0.00007162 Ry

     iteration #  4     ecut=    60.00 Ry     beta= 0.70
     Davidson diagonalization with overlap
     ethr =  8.95E-07,  avg # of iterations =  2.6

     total cpu time spent up to now is        1.7 secs

     total energy              =     -15.85312112 Ry
     estimated scf accuracy    <       0.00000261 Ry

     iteration #  5     ecut=    60.00 Ry     beta= 0.70
     Davidson diagonalization with overlap
     ethr =  3.27E-08,  avg # of iterations =  3.8

     total cpu time spent up to now is        2.1 secs

     total energy              =     -15.85312292 Ry
     estimated scf accuracy    <       0.00000011 Ry

     iteration #  6     ecut=    60.00 Ry     beta= 0.70
     Davidson diagonalization with overlap
     ethr =  1.32E-09,  avg # of iterations =  3.5

     total cpu time spent up to now is        2.4 secs

     total energy              =     -15.85312298 Ry
     estimated scf accuracy    <       0.00000001 Ry

     iteration #  7     ecut=    60.00 Ry     beta= 0.70
     Davidson diagonalization with overlap
     ethr =  1.30E-10,  avg # of iterations =  2.6

     total cpu time spent up to now is        2.8 secs

     End of self-consistent calculation

          k = 0.0000 0.0000 0.0000 (  2109 PWs)   bands (ev):

    -5.8878   6.0372   6.0372   6.0372

          k =-0.1250 0.1250-0.1250 (  2112 PWs)   bands (ev):

    -5.6836   4.4416   5.7489   5.7489

          k =-0.2500 0.2500-0.2500 (  2106 PWs)   bands (ev):

    -5.0875   2.1169   5.2788   5.2788

          k =-0.3750 0.3750-0.3750 (  2114 PWs)   bands (ev):

    -4.1900   0.0947   4.9519   4.9519

          k = 0.5000-0.5000 0.5000 (  2120 PWs)   bands (ev):

    -3.5443  -0.9353   4.8400   4.8400

          k = 0.0000 0.2500 0.0000 (  2125 PWs)   bands (ev):

    -5.6149   4.7097   5.2314   5.2314

          k =-0.1250 0.3750-0.1250 (  2106 PWs)   bands (ev):

    -5.1460   2.8242   4.7194   4.7940

          k =-0.2500 0.5000-0.2500 (  2116 PWs)   bands (ev):

    -4.3290   0.7631   4.2013   4.4512

          k = 0.6250-0.3750 0.6250 (  2115 PWs)   bands (ev):

    -3.4599  -0.7077   3.7550   4.4759

          k = 0.5000-0.2500 0.5000 (  2126 PWs)   bands (ev):

    -3.7076  -0.3340   3.5722   4.7730

          k = 0.3750-0.1250 0.3750 (  2117 PWs)   bands (ev):

    -4.6362   1.4235   3.7216   5.2649

          k = 0.2500 0.0000 0.2500 (  2111 PWs)   bands (ev):

    -5.3473   3.3638   4.4040   5.7455

          k = 0.0000 0.5000 0.0000 (  2085 PWs)   bands (ev):

    -4.8058   2.5429   4.1472   4.1472

          k =-0.1250 0.6250-0.1250 (  2114 PWs)   bands (ev):

    -4.0950   1.1233   3.3597   3.8284

          k = 0.7500-0.2500 0.7500 (  2123 PWs)   bands (ev):

    -3.1644  -0.3224   2.4911   3.8317

          k = 0.6250-0.1250 0.6250 (  2125 PWs)   bands (ev):

    -2.9566  -0.5839   2.0289   4.1510

          k = 0.5000 0.0000 0.5000 (  2119 PWs)   bands (ev):

    -3.8407   0.5814   2.2674   4.7107

          k = 0.0000 0.7500 0.0000 (  2120 PWs)   bands (ev):

    -3.4930   0.3252   3.4289   3.4289

          k = 0.8750-0.1250 0.8750 (  2127 PWs)   bands (ev):

    -2.5942  -0.7568   2.5884   3.3525

          k = 0.7500 0.0000 0.7500 (  2129 PWs)   bands (ev):

    -2.1483  -1.1564   1.7113   3.6110

          k = 0.0000-1.0000 0.0000 (  2100 PWs)   bands (ev):

    -1.7433  -1.7433   3.1824   3.1824

          k =-0.2500 0.5000 0.0000 (  2111 PWs)   bands (ev):

    -4.5576   1.7691   3.3147   4.6097

          k = 0.6250-0.3750 0.8750 (  2117 PWs)   bands (ev):

    -3.6662   0.2157   2.7067   4.1052

          k = 0.5000-0.2500 0.7500 (  2132 PWs)   bands (ev):

    -3.0073  -0.7368   2.5794   3.8740

          k = 0.7500-0.2500 1.0000 (  2120 PWs)   bands (ev):

    -3.2926   0.1072   2.6625   3.2699

          k = 0.6250-0.1250 0.8750 (  2132 PWs)   bands (ev):

    -2.4129  -0.8609   1.9568   3.0671

          k = 0.5000 0.0000 0.7500 (  2128 PWs)   bands (ev):

    -2.7637  -0.4989   1.7878   3.4457

          k =-0.2500-1.0000 0.0000 (  2142 PWs)   bands (ev):

    -1.6627  -1.6627   2.6075   2.6075

          k =-0.5000-1.0000 0.0000 (  2148 PWs)   bands (ev):

    -1.5736  -1.5736   2.1645   2.1645

     highest occupied level (ev):     6.0372

!    total energy              =     -15.85312298 Ry
     estimated scf accuracy    <          3.8E-11 Ry

     The total energy is the sum of the following terms:
     one-electron contribution =       4.64498414 Ry
     hartree contribution      =       1.09492536 Ry
     xc contribution           =      -4.79718070 Ry
     ewald contribution        =     -16.79585179 Ry

     convergence has been achieved in   7 iterations

     Writing all to output data dir ./SCRATCH/silicon.save/

     init_run     :      0.22s CPU      0.24s WALL (       1 calls)
     electrons    :      2.47s CPU      2.51s WALL (       1 calls)

     Called by init_run:
     wfcinit      :      0.19s CPU      0.20s WALL (       1 calls)
     potinit      :      0.00s CPU      0.01s WALL (       1 calls)
     hinit0       :      0.02s CPU      0.02s WALL (       1 calls)

     Called by electrons:
     c_bands      :      2.09s CPU      2.11s WALL (       8 calls)
     sum_band     :      0.34s CPU      0.36s WALL (       8 calls)
     v_of_rho     :      0.02s CPU      0.02s WALL (       8 calls)
     mix_rho      :      0.02s CPU      0.01s WALL (       8 calls)

     Called by c_bands:
     init_us_2    :      0.06s CPU      0.08s WALL (     493 calls)
     init_us_2:cp :      0.06s CPU      0.08s WALL (     493 calls)
     cegterg      :      2.05s CPU      2.02s WALL (     232 calls)

     Called by *egterg:
     cdiaghg      :      0.00s CPU      0.01s WALL (     753 calls)
     h_psi        :      2.05s CPU      1.98s WALL (     811 calls)
     g_psi        :      0.00s CPU      0.01s WALL (     550 calls)

     Called by h_psi:
     h_psi:calbec :      0.08s CPU      0.06s WALL (     811 calls)
     vloc_psi     :      1.91s CPU      1.87s WALL (     811 calls)
     add_vuspsi   :      0.03s CPU      0.04s WALL (     811 calls)

     General routines
     calbec       :      0.08s CPU      0.05s WALL (     811 calls)
     fft          :      0.02s CPU      0.01s WALL (      24 calls)
     ffts         :      0.00s CPU      0.00s WALL (       8 calls)
     fftw         :      1.89s CPU      1.93s WALL (    6798 calls)


     PWSCF        :      2.70s CPU      2.77s WALL


   This run was terminated on:  11:54:52  12May2024            

=------------------------------------------------------------------------------=
   JOB DONE.
=------------------------------------------------------------------------------=
