
     Program PWSCF v.7.2 starts on 10Jun2024 at  9:43:59 

     This program is part of the open-source Quantum ESPRESSO suite
     for quantum simulation of materials; please cite
         "P. Giannozzi et al., J. Phys.:Condens. Matter 21 395502 (2009);
         "P. Giannozzi et al., J. Phys.:Condens. Matter 29 465901 (2017);
         "P. Giannozzi et al., J. Chem. Phys. 152 154105 (2020);
          URL http://www.quantum-espresso.org", 
     in publications or presentations arising from this work. More details at
     http://www.quantum-espresso.org/quote

     Serial version
     10022 MiB available memory on the printing compute node when the environment starts

     Waiting for input...
     Reading input from standard input

     Current dimensions of program PWSCF are:
     Max number of different atomic species (ntypx) = 10
     Max number of k-points (npk) =  40000
     Max angular momentum in pseudopotentials (lmaxx) =  4


     G-vector sticks info
     --------------------
     sticks:   dense  smooth     PW     G-vecs:    dense   smooth      PW
     Sum         859     859    253                33449    33449    5299

     Using Slab Decomposition



     bravais-lattice index     =            4
     lattice parameter (alat)  =       7.2188  a.u.
     unit-cell volume          =     533.8610 (a.u.)^3
     number of atoms/cell      =            4
     number of atomic types    =            2
     number of electrons       =        52.00
     number of Kohn-Sham states=           26
     kinetic-energy cutoff     =      60.0000  Ry
     charge density cutoff     =     240.0000  Ry
     scf convergence threshold =      1.0E-08
     mixing beta               =       0.7000
     number of iterations used =            8  plain     mixing
     energy convergence thresh.=      1.0E-05
     force convergence thresh. =      1.0E-04
     press convergence thresh. =      5.0E-01
     Exchange-correlation= PBE
                           (   1   4   3   4   0   0   0)
     nstep                     =           50


     celldm(1)=   7.218753  celldm(2)=   0.000000  celldm(3)=   1.638743
     celldm(4)=   0.000000  celldm(5)=   0.000000  celldm(6)=   0.000000

     crystal axes: (cart. coord. in units of alat)
               a(1) = (   1.000000   0.000000   0.000000 )  
               a(2) = (  -0.500000   0.866025   0.000000 )  
               a(3) = (   0.000000   0.000000   1.638743 )  

     reciprocal axes: (cart. coord. in units 2 pi/alat)
               b(1) = (  1.000000  0.577350 -0.000000 )  
               b(2) = (  0.000000  1.154701  0.000000 )  
               b(3) = (  0.000000 -0.000000  0.610224 )  


     PseudoPot. # 1 for Zn read from file:
     /home/paolo/project_labqsm/pseudopotentials/Zn_ONCV_PBE-1.2.upf
     MD5 check sum: 732f41c0cd6489a4b50a33b4ec99a2d3
     Pseudo is Norm-conserving, Zval = 20.0
     Generated using ONCVPSP code by D. R. Hamann
     Using radial grid of  602 points,  6 beta functions with: 
                l(1) =   0
                l(2) =   0
                l(3) =   1
                l(4) =   1
                l(5) =   2
                l(6) =   2

     PseudoPot. # 2 for S  read from file:
     /home/paolo/project_labqsm/pseudopotentials/S_ONCV_PBE-1.2.upf
     MD5 check sum: f9d020296ee6110346977bfd66d424f6
     Pseudo is Norm-conserving, Zval =  6.0
     Generated using ONCVPSP code by D. R. Hamann
     Using radial grid of  602 points,  4 beta functions with: 
                l(1) =   0
                l(2) =   0
                l(3) =   1
                l(4) =   1

     atomic species   valence    mass     pseudopotential
        Zn            20.00    65.38000     Zn( 1.00)
        S              6.00    32.06000     S ( 1.00)

      6 Sym. Ops. (no inversion) found



   Cartesian axes

     site n.     atom                  positions (alat units)
         1           Zn  tau(   1) = (   0.0000000   0.0000000   0.0000000  )
         2           S   tau(   2) = (   0.0000000   0.0000000   0.3723729  )
         3           Zn  tau(   3) = (   0.0000000   0.5773503   0.5000000  )
         4           S   tau(   4) = (   0.0000000   0.5773503   0.8723729  )

     number of k points=    34
                       cart. coord. in units 2pi/alat
        k(    1) = (   0.0000000   0.0000000   0.0000000), wk =   0.0092593
        k(    2) = (   0.0000000   0.0000000   0.1017039), wk =   0.0185185
        k(    3) = (   0.0000000   0.0000000   0.2034079), wk =   0.0185185
        k(    4) = (   0.0000000   0.0000000  -0.3051118), wk =   0.0092593
        k(    5) = (   0.0000000   0.1924501   0.0000000), wk =   0.0555556
        k(    6) = (   0.0000000   0.1924501   0.1017039), wk =   0.0555556
        k(    7) = (   0.0000000   0.1924501   0.2034079), wk =   0.0555556
        k(    8) = (   0.0000000   0.1924501  -0.3051118), wk =   0.0555556
        k(    9) = (   0.0000000   0.3849002   0.0000000), wk =   0.0555556
        k(   10) = (   0.0000000   0.3849002   0.1017039), wk =   0.0555556
        k(   11) = (   0.0000000   0.3849002   0.2034079), wk =   0.0555556
        k(   12) = (   0.0000000   0.3849002  -0.3051118), wk =   0.0555556
        k(   13) = (   0.0000000  -0.5773503   0.0000000), wk =   0.0277778
        k(   14) = (   0.0000000  -0.5773503   0.1017039), wk =   0.0555556
        k(   15) = (   0.0000000  -0.5773503   0.2034079), wk =   0.0555556
        k(   16) = (   0.0000000  -0.5773503  -0.3051118), wk =   0.0277778
        k(   17) = (   0.1666667   0.2886751   0.0000000), wk =   0.0555556
        k(   18) = (   0.1666667   0.2886751   0.1017039), wk =   0.1111111
        k(   19) = (   0.1666667   0.2886751   0.2034079), wk =   0.1111111
        k(   20) = (   0.1666667   0.2886751  -0.3051118), wk =   0.0555556
        k(   21) = (   0.1666667   0.4811252   0.0000000), wk =   0.1111111
        k(   22) = (   0.1666667   0.4811252   0.1017039), wk =   0.1111111
        k(   23) = (   0.1666667   0.4811252   0.2034079), wk =   0.1111111
        k(   24) = (   0.1666667   0.4811252  -0.3051118), wk =   0.1111111
        k(   25) = (   0.3333333   0.5773503   0.0000000), wk =   0.0185185
        k(   26) = (   0.3333333   0.5773503   0.1017039), wk =   0.0370370
        k(   27) = (   0.3333333   0.5773503   0.2034079), wk =   0.0370370
        k(   28) = (   0.3333333   0.5773503  -0.3051118), wk =   0.0185185
        k(   29) = (   0.0000000  -0.1924501   0.1017039), wk =   0.0555556
        k(   30) = (   0.0000000  -0.1924501   0.2034079), wk =   0.0555556
        k(   31) = (   0.0000000  -0.3849002   0.1017039), wk =   0.0555556
        k(   32) = (   0.0000000  -0.3849002   0.2034079), wk =   0.0555556
        k(   33) = (  -0.1666667  -0.4811252   0.1017039), wk =   0.1111111
        k(   34) = (  -0.1666667  -0.4811252   0.2034079), wk =   0.1111111

     Dense  grid:    33449 G-vectors     FFT dimensions: (  36,  36,  60)

     Estimated max dynamical RAM per process >      93.54 MB

     Initial potential from superposition of free atoms

     starting charge      51.9339, renormalised to      52.0000
     Starting wfcs are random

     total cpu time spent up to now is        2.7 secs

     Self-consistent Calculation

     iteration #  1     ecut=    60.00 Ry     beta= 0.70
     Davidson diagonalization with overlap
     ethr =  1.00E-02,  avg # of iterations = 14.9

     total cpu time spent up to now is       27.8 secs

     total energy              =    -838.96141691 Ry
     estimated scf accuracy    <       1.26996175 Ry

     iteration #  2     ecut=    60.00 Ry     beta= 0.70
     Davidson diagonalization with overlap
     ethr =  2.44E-03,  avg # of iterations =  8.0

     total cpu time spent up to now is       35.4 secs

     total energy              =    -838.43569842 Ry
     estimated scf accuracy    <       6.73992282 Ry

     iteration #  3     ecut=    60.00 Ry     beta= 0.70
     Davidson diagonalization with overlap
     ethr =  2.44E-03,  avg # of iterations =  6.0

     total cpu time spent up to now is       42.1 secs

     total energy              =    -839.62858794 Ry
     estimated scf accuracy    <       0.34415836 Ry

     iteration #  4     ecut=    60.00 Ry     beta= 0.70
     Davidson diagonalization with overlap
     ethr =  6.62E-04,  avg # of iterations =  2.1

     total cpu time spent up to now is       47.3 secs

     total energy              =    -839.64549342 Ry
     estimated scf accuracy    <       0.07342810 Ry

     iteration #  5     ecut=    60.00 Ry     beta= 0.70
     Davidson diagonalization with overlap
     ethr =  1.41E-04,  avg # of iterations =  4.2

     total cpu time spent up to now is       52.6 secs

     total energy              =    -839.65367877 Ry
     estimated scf accuracy    <       0.00515848 Ry

     iteration #  6     ecut=    60.00 Ry     beta= 0.70
     Davidson diagonalization with overlap
     ethr =  9.92E-06,  avg # of iterations =  4.7

     total cpu time spent up to now is       58.4 secs

     total energy              =    -839.65490221 Ry
     estimated scf accuracy    <       0.00093875 Ry

     iteration #  7     ecut=    60.00 Ry     beta= 0.70
     Davidson diagonalization with overlap
     ethr =  1.81E-06,  avg # of iterations =  3.7

     total cpu time spent up to now is       64.2 secs

     total energy              =    -839.65512042 Ry
     estimated scf accuracy    <       0.00022055 Ry

     iteration #  8     ecut=    60.00 Ry     beta= 0.70
     Davidson diagonalization with overlap
     ethr =  4.24E-07,  avg # of iterations =  3.3

     total cpu time spent up to now is       69.4 secs

     total energy              =    -839.65514220 Ry
     estimated scf accuracy    <       0.00001549 Ry

     iteration #  9     ecut=    60.00 Ry     beta= 0.70
     Davidson diagonalization with overlap
     ethr =  2.98E-08,  avg # of iterations =  5.3

     total cpu time spent up to now is       75.8 secs

     total energy              =    -839.65514825 Ry
     estimated scf accuracy    <       0.00000532 Ry

     iteration # 10     ecut=    60.00 Ry     beta= 0.70
     Davidson diagonalization with overlap
     ethr =  1.02E-08,  avg # of iterations =  3.8

     total cpu time spent up to now is       81.0 secs

     total energy              =    -839.65514874 Ry
     estimated scf accuracy    <       0.00000028 Ry

     iteration # 11     ecut=    60.00 Ry     beta= 0.70
     Davidson diagonalization with overlap
     ethr =  5.42E-10,  avg # of iterations =  5.2

     total cpu time spent up to now is       87.0 secs

     total energy              =    -839.65514884 Ry
     estimated scf accuracy    <       0.00000010 Ry

     iteration # 12     ecut=    60.00 Ry     beta= 0.70
     Davidson diagonalization with overlap
     ethr =  1.86E-10,  avg # of iterations =  2.9

     total cpu time spent up to now is       92.3 secs

     End of self-consistent calculation

          k = 0.0000 0.0000 0.0000 (  4199 PWs)   bands (ev):

  -121.3690-120.5333 -76.7724 -75.8729 -75.1738 -75.1738 -74.4453 -74.4453
    -9.3730  -6.7507  -4.0496  -3.9642  -3.9642  -2.8408  -2.8408  -1.5613
    -1.5613  -1.3293  -1.3293  -1.2678   2.4645   4.7439   4.7439   7.2995
     8.2209   8.2209

          k = 0.0000 0.0000 0.1017 (  4157 PWs)   bands (ev):

  -121.3690-120.5333 -76.7724 -75.8729 -75.1738 -75.1738 -74.4453 -74.4453
    -9.3700  -6.7544  -4.0518  -3.9634  -3.9634  -2.8405  -2.8405  -1.5607
    -1.5607  -1.3285  -1.3285  -1.3102   2.6529   4.7508   4.7508   6.8384
     8.2062   8.2062

          k = 0.0000 0.0000 0.2034 (  4181 PWs)   bands (ev):

  -121.3690-120.5333 -76.7724 -75.8730 -75.1738 -75.1738 -74.4453 -74.4453
    -9.3640  -6.7618  -4.0578  -3.9637  -3.9637  -2.8424  -2.8424  -1.5603
    -1.5603  -1.3892  -1.3281  -1.3281   3.0920   4.7636   4.7636   6.0944
     8.1754   8.1754

          k = 0.0000 0.0000-0.3051 (  4194 PWs)   bands (ev):

  -121.3690-120.5333 -76.7724 -75.8729 -75.1738 -75.1738 -74.4453 -74.4453
    -9.3609  -6.7655  -4.0596  -3.9640  -3.9640  -2.8435  -2.8435  -1.5604
    -1.5604  -1.4257  -1.3283  -1.3283   3.3722   4.7698   4.7698   5.7080
     8.1596   8.1596

          k = 0.0000 0.1925 0.0000 (  4161 PWs)   bands (ev):

  -121.3690-120.5333 -76.7723 -75.8729 -75.1738 -75.1738 -74.4453 -74.4453
    -9.2786  -6.7353  -4.0890  -3.9689  -3.8607  -2.8818  -2.8372  -1.5757
    -1.5483  -1.4447  -1.2794  -1.0320   2.6618   3.6510   4.3467   7.1198
     7.9173   8.3821

          k = 0.0000 0.1925 0.1017 (  4181 PWs)   bands (ev):

  -121.3690-120.5333 -76.7724 -75.8729 -75.1738 -75.1738 -74.4453 -74.4453
    -9.2761  -6.7380  -4.0907  -3.9693  -3.8615  -2.8824  -2.8387  -1.5760
    -1.5485  -1.4494  -1.2795  -1.0606   2.7872   3.6575   4.3555   7.1333
     7.6558   8.3456

          k = 0.0000 0.1925 0.2034 (  4186 PWs)   bands (ev):

  -121.3690-120.5333 -76.7724 -75.8729 -75.1738 -75.1738 -74.4453 -74.4453
    -9.2709  -6.7437  -4.0941  -3.9691  -3.8635  -2.8836  -2.8401  -1.5788
    -1.5482  -1.4576  -1.2792  -1.1131   3.0491   3.7042   4.3720   6.7154
     7.6340   8.2892

          k = 0.0000 0.1925-0.3051 (  4180 PWs)   bands (ev):

  -121.3690-120.5333 -76.7724 -75.8729 -75.1738 -75.1738 -74.4453 -74.4453
    -9.2683  -6.7465  -4.0954  -3.9691  -3.8641  -2.8843  -2.8409  -1.5818
    -1.5479  -1.4607  -1.2788  -1.1370   3.1773   3.7647   4.3790   6.4058
     7.7094   8.2683

          k = 0.0000 0.3849 0.0000 (  4210 PWs)   bands (ev):

  -121.3690-120.5333 -76.7724 -75.8729 -75.1739 -75.1738 -74.4454 -74.4453
    -9.0814  -6.7044  -4.1245  -3.9806  -3.6564  -2.9489  -2.8322  -1.6053
    -1.5234  -1.5076  -1.1723  -0.7983   2.1579   3.2830   3.6976   6.2653
     7.5602   8.4946

          k = 0.0000 0.3849 0.1017 (  4192 PWs)   bands (ev):

  -121.3690-120.5333 -76.7724 -75.8729 -75.1739 -75.1738 -74.4454 -74.4453
    -9.0798  -6.7053  -4.1250  -3.9803  -3.6578  -2.9486  -2.8333  -1.6021
    -1.5230  -1.5068  -1.1717  -0.8073   2.0839   3.3562   3.7085   6.5510
     7.4457   8.4370

          k = 0.0000 0.3849 0.2034 (  4177 PWs)   bands (ev):

  -121.3690-120.5333 -76.7724 -75.8729 -75.1739 -75.1738 -74.4454 -74.4453
    -9.0767  -6.7071  -4.1261  -3.9799  -3.6607  -2.9491  -2.8353  -1.6051
    -1.5226  -1.4944  -1.1711  -0.8321   1.9822   3.4996   3.7288   6.8872
     7.3550   8.3379

          k = 0.0000 0.3849-0.3051 (  4190 PWs)   bands (ev):

  -121.3690-120.5333 -76.7724 -75.8729 -75.1739 -75.1738 -74.4454 -74.4453
    -9.0752  -6.7080  -4.1268  -3.9797  -3.6628  -2.9503  -2.8360  -1.6106
    -1.5225  -1.4836  -1.1710  -0.8480   1.9484   3.5767   3.7382   6.7678
     7.4961   8.2953

          k = 0.0000-0.5774 0.0000 (  4168 PWs)   bands (ev):

  -121.3690-120.5333 -76.7723 -75.8729 -75.1739 -75.1739 -74.4454 -74.4453
    -8.9780  -6.6887  -4.1361  -3.9861  -3.5250  -2.9732  -2.8291  -1.6164
    -1.5099  -1.5072  -1.1123  -0.8071   1.7216   3.4153   3.5231   6.3556
     6.6610   8.4956

          k = 0.0000-0.5774 0.1017 (  4198 PWs)   bands (ev):

  -121.3690-120.5333 -76.7724 -75.8729 -75.1739 -75.1739 -74.4454 -74.4453
    -8.9772  -6.6888  -4.1370  -3.9860  -3.5279  -2.9745  -2.8306  -1.6176
    -1.5100  -1.4972  -1.1125  -0.8070   1.6549   3.4256   3.5140   6.3635
     6.9674   8.4339

          k = 0.0000-0.5774 0.2034 (  4202 PWs)   bands (ev):

  -121.3690-120.5333 -76.7724 -75.8729 -75.1739 -75.1739 -74.4454 -74.4453
    -8.9753  -6.6885  -4.1375  -3.9855  -3.5321  -2.9759  -2.8329  -1.6193
    -1.5099  -1.4760  -1.1124  -0.8065   1.5330   3.4472   3.4794   6.6632
     7.3161   8.3168

          k = 0.0000-0.5774-0.3051 (  4184 PWs)   bands (ev):

  -121.3690-120.5333 -76.7724 -75.8729 -75.1739 -75.1739 -74.4454 -74.4453
    -8.9743  -6.6884  -4.1374  -3.9850  -3.5342  -2.9761  -2.8335  -1.6199
    -1.5097  -1.4653  -1.1122  -0.8062   1.4765   3.4566   3.4583   7.0906
     7.1768   8.2611

          k = 0.1667 0.2887 0.0000 (  4195 PWs)   bands (ev):

  -121.3690-120.5333 -76.7724 -75.8729 -75.1739 -75.1738 -74.4453 -74.4453
    -9.1322  -6.7120  -4.1093  -3.9879  -3.7101  -2.9296  -2.8388  -1.5860
    -1.5520  -1.4930  -1.1949  -0.8290   2.5790   3.1722   3.5254   6.6283
     7.8799   8.2271

          k = 0.1667 0.2887 0.1017 (  4175 PWs)   bands (ev):

  -121.3690-120.5333 -76.7723 -75.8729 -75.1739 -75.1738 -74.4453 -74.4453
    -9.1304  -6.7133  -4.1098  -3.9876  -3.7113  -2.9296  -2.8394  -1.5886
    -1.5485  -1.4911  -1.1945  -0.8474   2.5087   3.2888   3.5603   6.6289
     7.9229   8.1786

          k = 0.1667 0.2887 0.2034 (  4184 PWs)   bands (ev):

  -121.3690-120.5333 -76.7724 -75.8729 -75.1739 -75.1738 -74.4453 -74.4453
    -9.1267  -6.7161  -4.1118  -3.9875  -3.7140  -2.9303  -2.8417  -1.5929
    -1.5434  -1.4877  -1.1948  -0.8842   2.4220   3.4191   3.6690   6.7638
     7.7943   8.0832

          k = 0.1667 0.2887-0.3051 (  4200 PWs)   bands (ev):

  -121.3690-120.5333 -76.7724 -75.8729 -75.1739 -75.1738 -74.4453 -74.4453
    -9.1249  -6.7175  -4.1128  -3.9876  -3.7154  -2.9308  -2.8430  -1.5951
    -1.5413  -1.4858  -1.1948  -0.9024   2.3921   3.4529   3.7353   6.9863
     7.5346   8.0211

          k = 0.1667 0.4811 0.0000 (  4196 PWs)   bands (ev):

  -121.3690-120.5333 -76.7724 -75.8729 -75.1739 -75.1739 -74.4454 -74.4453
    -8.9800  -6.6879  -4.1136  -4.0103  -3.5238  -2.9640  -2.8422  -1.6028
    -1.5634  -1.4911  -1.1091  -0.7340   1.9360   2.8553   3.5261   6.3815
     7.2092   8.0248

          k = 0.1667 0.4811 0.1017 (  4206 PWs)   bands (ev):

  -121.3690-120.5333 -76.7724 -75.8729 -75.1739 -75.1739 -74.4454 -74.4453
    -8.9791  -6.6879  -4.1141  -4.0102  -3.5259  -2.9644  -2.8437  -1.5985
    -1.5604  -1.4909  -1.1095  -0.7346   1.8710   2.8538   3.5310   6.6107
     7.3016   7.9141

          k = 0.1667 0.4811 0.2034 (  4198 PWs)   bands (ev):

  -121.3690-120.5333 -76.7724 -75.8729 -75.1739 -75.1739 -74.4454 -74.4453
    -8.9772  -6.6877  -4.1146  -4.0098  -3.5300  -2.9650  -2.8462  -1.5980
    -1.5456  -1.4886  -1.1099  -0.7389   1.7595   2.8593   3.5297   7.0076
     7.5192   7.8193

          k = 0.1667 0.4811-0.3051 (  4182 PWs)   bands (ev):

  -121.3690-120.5333 -76.7724 -75.8729 -75.1739 -75.1739 -74.4454 -74.4453
    -8.9762  -6.6876  -4.1146  -4.0095  -3.5319  -2.9653  -2.8472  -1.6000
    -1.5364  -1.4858  -1.1099  -0.7426   1.7119   2.8646   3.5251   7.1446
     7.5801   7.9117

          k = 0.3333 0.5774 0.0000 (  4221 PWs)   bands (ev):

  -121.3690-120.5333 -76.7724 -75.8729 -75.1739 -75.1739 -74.4454 -74.4453
    -8.9298  -6.6790  -4.0672  -4.0648  -3.4475  -2.9643  -2.8551  -1.6136
    -1.5699  -1.4904  -1.0986  -0.6470   2.0352   2.1782   3.6177   6.6389
     7.0777   7.5836

          k = 0.3333 0.5774 0.1017 (  4224 PWs)   bands (ev):

  -121.3690-120.5333 -76.7724 -75.8729 -75.1739 -75.1739 -74.4454 -74.4453
    -8.9292  -6.6785  -4.0668  -4.0652  -3.4499  -2.9646  -2.8568  -1.6025
    -1.5697  -1.4917  -1.0988  -0.6470   2.0508   2.1043   3.5785   6.8533
     7.2615   7.4348

          k = 0.3333 0.5774 0.2034 (  4209 PWs)   bands (ev):

  -121.3690-120.5333 -76.7724 -75.8729 -75.1739 -75.1739 -74.4454 -74.4453
    -8.9278  -6.6773  -4.0661  -4.0656  -3.4544  -2.9648  -2.8600  -1.5787
    -1.5694  -1.4949  -1.0991  -0.6467   1.9660   2.0828   3.5058   7.1829
     7.3303   7.6965

          k = 0.3333 0.5774-0.3051 (  4188 PWs)   bands (ev):

  -121.3690-120.5333 -76.7723 -75.8729 -75.1739 -75.1739 -74.4454 -74.4453
    -8.9272  -6.6767  -4.0657  -4.0655  -3.4565  -2.9648  -2.8615  -1.5692
    -1.5656  -1.4972  -1.0990  -0.6464   1.9010   2.0992   3.4720   7.0728
     7.6101   7.9824

          k = 0.0000-0.1925 0.1017 (  4181 PWs)   bands (ev):

  -121.3690-120.5333 -76.7724 -75.8729 -75.1738 -75.1738 -74.4453 -74.4453
    -9.2761  -6.7380  -4.0904  -3.9694  -3.8616  -2.8826  -2.8384  -1.5785
    -1.5483  -1.4471  -1.2795  -1.0614   2.7865   3.6851   4.3529   6.7904
     8.0701   8.3600

          k = 0.0000-0.1925 0.2034 (  4186 PWs)   bands (ev):

  -121.3690-120.5333 -76.7724 -75.8729 -75.1738 -75.1738 -74.4453 -74.4453
    -9.2709  -6.7436  -4.0939  -3.9693  -3.8636  -2.8840  -2.8398  -1.5815
    -1.5481  -1.4548  -1.2792  -1.1139   3.0420   3.7455   4.3694   6.4686
     7.9060   8.3030

          k = 0.0000-0.3849 0.1017 (  4192 PWs)   bands (ev):

  -121.3690-120.5333 -76.7724 -75.8729 -75.1739 -75.1738 -74.4454 -74.4453
    -9.0798  -6.7053  -4.1245  -3.9804  -3.6581  -2.9490  -2.8332  -1.6108
    -1.5229  -1.4966  -1.1715  -0.8135   2.0999   3.4038   3.7067   6.1105
     7.8253   8.4490

          k = 0.0000-0.3849 0.2034 (  4177 PWs)   bands (ev):

  -121.3690-120.5333 -76.7724 -75.8729 -75.1739 -75.1738 -74.4454 -74.4453
    -9.0767  -6.7070  -4.1257  -3.9801  -3.6612  -2.9495  -2.8350  -1.6130
    -1.5225  -1.4847  -1.1711  -0.8381   1.9976   3.5496   3.7271   6.2866
     7.8741   8.3491

          k =-0.1667-0.4811 0.1017 (  4206 PWs)   bands (ev):

  -121.3690-120.5333 -76.7724 -75.8729 -75.1739 -75.1739 -74.4454 -74.4453
    -8.9791  -6.6879  -4.1139  -4.0103  -3.5260  -2.9646  -2.8436  -1.6050
    -1.5541  -1.4899  -1.1096  -0.7377   1.8807   2.8519   3.5422   6.4094
     7.4564   7.9681

          k =-0.1667-0.4811 0.2034 (  4198 PWs)   bands (ev):

  -121.3690-120.5333 -76.7724 -75.8729 -75.1739 -75.1739 -74.4454 -74.4453
    -8.9772  -6.6877  -4.1143  -4.0099  -3.5302  -2.9652  -2.8461  -1.6031
    -1.5411  -1.4870  -1.1100  -0.7422   1.7686   2.8576   3.5388   6.7514
     7.6262   7.9734

     highest occupied level (ev):     8.4956

!    total energy              =    -839.65514885 Ry
     estimated scf accuracy    <          5.2E-09 Ry

     The total energy is the sum of the following terms:
     one-electron contribution =    -832.69741794 Ry
     hartree contribution      =     418.77902227 Ry
     xc contribution           =     -82.82815181 Ry
     ewald contribution        =    -342.90860136 Ry

     convergence has been achieved in  12 iterations

     Forces acting on atoms (cartesian axes, Ry/au):

     atom    1 type  1   force =     0.00000000   -0.00000000   -2.07380899
     atom    2 type  2   force =     0.00000000    0.00000000    1.85728158
     atom    3 type  1   force =     0.00000000   -0.00000000   -1.97730149
     atom    4 type  2   force =     0.00000000   -0.00000000    2.19382890
     The non-local contrib.  to forces
     atom    1 type  1   force =     0.00000000    0.00000000    2.15155079
     atom    2 type  2   force =     0.00000000    0.00000000    1.35396964
     atom    3 type  1   force =    -0.00000000    0.00000000    1.36190307
     atom    4 type  2   force =     0.00000000    0.00000000    1.72143575
     The ionic contribution  to forces
     atom    1 type  1   force =    -0.00000000   -0.00000001  -68.48612160
     atom    2 type  2   force =    -0.00000000   -0.00000001   23.91153580
     atom    3 type  1   force =    -0.00000000    0.00000001    8.48279742
     atom    4 type  2   force =     0.00000000    0.00000000   36.09178838
     The local contribution  to forces
     atom    1 type  1   force =    -0.00000000   -0.00000000   64.26065087
     atom    2 type  2   force =     0.00000000   -0.00000000  -23.40839360
     atom    3 type  1   force =    -0.00000000    0.00000048  -11.82270504
     atom    4 type  2   force =     0.00000000    0.00000001  -35.61943565
     The core correction contribution to forces
     atom    1 type  1   force =     0.00000000    0.00000000    0.00000000
     atom    2 type  2   force =     0.00000000    0.00000000    0.00000000
     atom    3 type  1   force =     0.00000000    0.00000000    0.00000000
     atom    4 type  2   force =     0.00000000    0.00000000    0.00000000
     The Hubbard contrib.    to forces
     atom    1 type  1   force =     0.00000000    0.00000000    0.00000000
     atom    2 type  2   force =     0.00000000    0.00000000    0.00000000
     atom    3 type  1   force =     0.00000000    0.00000000    0.00000000
     atom    4 type  2   force =     0.00000000    0.00000000    0.00000000
     The SCF correction term to forces
     atom    1 type  1   force =     0.00000000   -0.00000000    0.00005620
     atom    2 type  2   force =    -0.00000000   -0.00000000    0.00011499
     atom    3 type  1   force =     0.00000000    0.00000000    0.00064831
     atom    4 type  2   force =    -0.00000000    0.00000000   -0.00001433

     Total force =     4.058668     Total SCF correction =     0.000661


     Computing stress (Cartesian axis) and pressure

          total   stress  (Ry/bohr**3)                   (kbar)     P=     1118.47
   0.00100631   0.00000000   0.00000000          148.03        0.00        0.00
   0.00000000   0.00100631   0.00000000            0.00      148.03        0.00
   0.00000000   0.00000000   0.02079705            0.00        0.00     3059.35


     BFGS Geometry Optimization
     Energy error            =      0.0E+00 Ry
     Gradient error          =      2.2E+00 Ry/Bohr
     Cell gradient error     =      3.1E+03 kbar

     number of scf cycles    =   1
     number of bfgs steps    =   0

     enthalpy           new  =    -839.6551488468 Ry

     new trust radius        =       0.5000000000 bohr
     new conv_thr            =       0.0000000100 Ry

     new unit-cell volume =    597.83566 a.u.^3 (    88.59010 Ang^3 )
     density =      3.65284 g/cm^3

CELL_PARAMETERS (alat=  7.21875328)
   1.005235462   0.000000000   0.000000000
  -0.502617731   0.870559447   0.000000000
   0.000000000   0.000000000   1.816054946

ATOMIC_POSITIONS (alat)
Zn            0.0000000000       -0.0000000000       -0.0662534917
S             0.0000000000        0.0000000000        0.4719994471
Zn            0.0000000000        0.5803729643        0.4909295354
S             0.0000000000        0.5803729643        1.0368512019



     Writing config-only to output data dir /home/paolo/project_labqsm/ZnS_wurtzite/SCRATCH/zns_w.save/
     NEW-OLD atomic charge density approx. for the potential
     extrapolated charge   57.55747, renormalised to   52.00000

     total cpu time spent up to now is      101.4 secs

     Self-consistent Calculation

     iteration #  1     ecut=    60.00 Ry     beta= 0.70
     Davidson diagonalization with overlap
     c_bands:  3 eigenvalues not converged
     c_bands:  4 eigenvalues not converged
     c_bands:  5 eigenvalues not converged
     c_bands:  1 eigenvalues not converged
     c_bands:  1 eigenvalues not converged
     c_bands:  1 eigenvalues not converged
     c_bands:  4 eigenvalues not converged
     c_bands:  5 eigenvalues not converged
     c_bands:  5 eigenvalues not converged
     c_bands:  1 eigenvalues not converged
     c_bands:  1 eigenvalues not converged
     ethr =  1.00E-06,  avg # of iterations = 32.7

     total cpu time spent up to now is      145.2 secs

     total energy              =    -675.11995042 Ry
     estimated scf accuracy    <     162.84500931 Ry

     iteration #  2     ecut=    60.00 Ry     beta= 0.70
     Davidson diagonalization with overlap
     ethr =  1.00E-02,  avg # of iterations = 14.5

     total cpu time spent up to now is      165.0 secs

     total energy              =    -873.80670463 Ry
     estimated scf accuracy    <     271.81686249 Ry

     iteration #  3     ecut=    60.00 Ry     beta= 0.70
     Davidson diagonalization with overlap
     ethr =  1.00E-02,  avg # of iterations =  4.7

     total cpu time spent up to now is      172.4 secs

     total energy              =    -854.66773557 Ry
     estimated scf accuracy    <      90.25882284 Ry

     iteration #  4     ecut=    60.00 Ry     beta= 0.70
     Davidson diagonalization with overlap
     ethr =  1.00E-02,  avg # of iterations =  4.6

     total cpu time spent up to now is      178.4 secs

     total energy              =    -846.80743415 Ry
     estimated scf accuracy    <      42.51803556 Ry

     iteration #  5     ecut=    60.00 Ry     beta= 0.70
     Davidson diagonalization with overlap
     ethr =  1.00E-02,  avg # of iterations =  5.1

     total cpu time spent up to now is      183.8 secs

     total energy              =    -845.50235922 Ry
     estimated scf accuracy    <      18.79935911 Ry

     iteration #  6     ecut=    60.00 Ry     beta= 0.70
     Davidson diagonalization with overlap
     ethr =  1.00E-02,  avg # of iterations =  2.6

     total cpu time spent up to now is      188.6 secs

     total energy              =    -842.43701154 Ry
     estimated scf accuracy    <      14.85907394 Ry

     iteration #  7     ecut=    60.00 Ry     beta= 0.70
     Davidson diagonalization with overlap
     ethr =  1.00E-02,  avg # of iterations =  4.1

     total cpu time spent up to now is      193.7 secs

     total energy              =    -843.28391915 Ry
     estimated scf accuracy    <       5.09275151 Ry

     iteration #  8     ecut=    60.00 Ry     beta= 0.70
     Davidson diagonalization with overlap
     ethr =  9.79E-03,  avg # of iterations =  2.1

     total cpu time spent up to now is      198.3 secs

     total energy              =    -842.29802172 Ry
     estimated scf accuracy    <       6.60840895 Ry

     iteration #  9     ecut=    60.00 Ry     beta= 0.70
     Davidson diagonalization with overlap
     ethr =  9.79E-03,  avg # of iterations =  3.6

     total cpu time spent up to now is      203.3 secs

     total energy              =    -840.32155166 Ry
     estimated scf accuracy    <       7.99537396 Ry

     iteration # 10     ecut=    60.00 Ry     beta= 0.70
     Davidson diagonalization with overlap
     ethr =  9.79E-03,  avg # of iterations =  5.1

     total cpu time spent up to now is      208.7 secs

     total energy              =    -841.27752461 Ry
     estimated scf accuracy    <       0.05378841 Ry

     iteration # 11     ecut=    60.00 Ry     beta= 0.70
     Davidson diagonalization with overlap
     ethr =  1.03E-04,  avg # of iterations =  7.0

     total cpu time spent up to now is      216.6 secs

     total energy              =    -841.49996059 Ry
     estimated scf accuracy    <       0.80325333 Ry

     iteration # 12     ecut=    60.00 Ry     beta= 0.70
     Davidson diagonalization with overlap
     ethr =  1.03E-04,  avg # of iterations =  2.0

     total cpu time spent up to now is      221.4 secs

     total energy              =    -841.41131455 Ry
     estimated scf accuracy    <       0.69504563 Ry

     iteration # 13     ecut=    60.00 Ry     beta= 0.70
     Davidson diagonalization with overlap
     ethr =  1.03E-04,  avg # of iterations =  3.3

     total cpu time spent up to now is      226.7 secs

     total energy              =    -841.43318954 Ry
     estimated scf accuracy    <       0.43248053 Ry

     iteration # 14     ecut=    60.00 Ry     beta= 0.70
     Davidson diagonalization with overlap
     ethr =  1.03E-04,  avg # of iterations =  2.1

     total cpu time spent up to now is      232.4 secs

     total energy              =    -841.43367759 Ry
     estimated scf accuracy    <       0.48321737 Ry

     iteration # 15     ecut=    60.00 Ry     beta= 0.70
     Davidson diagonalization with overlap
     ethr =  1.03E-04,  avg # of iterations =  2.3

     total cpu time spent up to now is      237.8 secs

     total energy              =    -841.40418898 Ry
     estimated scf accuracy    <       0.47527138 Ry

     iteration # 16     ecut=    60.00 Ry     beta= 0.70
     Davidson diagonalization with overlap
     ethr =  1.03E-04,  avg # of iterations =  2.0

     total cpu time spent up to now is      242.5 secs

     total energy              =    -841.37234091 Ry
     estimated scf accuracy    <       0.36911824 Ry

     iteration # 17     ecut=    60.00 Ry     beta= 0.70
     Davidson diagonalization with overlap
     ethr =  1.03E-04,  avg # of iterations =  2.2

     total cpu time spent up to now is      247.3 secs

     total energy              =    -841.29480562 Ry
     estimated scf accuracy    <       0.25308266 Ry

     iteration # 18     ecut=    60.00 Ry     beta= 0.70
     Davidson diagonalization with overlap
     ethr =  1.03E-04,  avg # of iterations =  6.6

     total cpu time spent up to now is      253.4 secs

     total energy              =    -841.32251487 Ry
     estimated scf accuracy    <       0.02262079 Ry

     iteration # 19     ecut=    60.00 Ry     beta= 0.70
     Davidson diagonalization with overlap
     ethr =  4.35E-05,  avg # of iterations =  3.9

     total cpu time spent up to now is      258.7 secs

     total energy              =    -841.32658801 Ry
     estimated scf accuracy    <       0.00113331 Ry

     iteration # 20     ecut=    60.00 Ry     beta= 0.70
     Davidson diagonalization with overlap
     ethr =  2.18E-06,  avg # of iterations =  3.7

     total cpu time spent up to now is      264.6 secs

     total energy              =    -841.32638345 Ry
     estimated scf accuracy    <       0.00118163 Ry

     iteration # 21     ecut=    60.00 Ry     beta= 0.70
     Davidson diagonalization with overlap
     ethr =  2.18E-06,  avg # of iterations =  4.1

     total cpu time spent up to now is      269.9 secs

     total energy              =    -841.32659177 Ry
     estimated scf accuracy    <       0.00005726 Ry

     iteration # 22     ecut=    60.00 Ry     beta= 0.70
     Davidson diagonalization with overlap
     ethr =  1.10E-07,  avg # of iterations =  5.8

     total cpu time spent up to now is      275.7 secs

     total energy              =    -841.32802366 Ry
     estimated scf accuracy    <       0.00139163 Ry

     iteration # 23     ecut=    60.00 Ry     beta= 0.70
     Davidson diagonalization with overlap
     ethr =  1.10E-07,  avg # of iterations =  4.9

     total cpu time spent up to now is      281.2 secs

     total energy              =    -841.32777132 Ry
     estimated scf accuracy    <       0.00077419 Ry

     iteration # 24     ecut=    60.00 Ry     beta= 0.70
     Davidson diagonalization with overlap
     ethr =  1.10E-07,  avg # of iterations =  6.7

     total cpu time spent up to now is      288.1 secs

     total energy              =    -841.32790426 Ry
     estimated scf accuracy    <       0.00003410 Ry

     iteration # 25     ecut=    60.00 Ry     beta= 0.70
     Davidson diagonalization with overlap
     ethr =  6.56E-08,  avg # of iterations =  4.1

     total cpu time spent up to now is      293.2 secs

     total energy              =    -841.32790868 Ry
     estimated scf accuracy    <       0.00000016 Ry

     iteration # 26     ecut=    60.00 Ry     beta= 0.70
     Davidson diagonalization with overlap
     ethr =  3.17E-10,  avg # of iterations =  5.9

     total cpu time spent up to now is      300.1 secs

     total energy              =    -841.32790887 Ry
     estimated scf accuracy    <       0.00000012 Ry

     iteration # 27     ecut=    60.00 Ry     beta= 0.70
     Davidson diagonalization with overlap
     ethr =  2.25E-10,  avg # of iterations =  2.3

     total cpu time spent up to now is      305.1 secs

     total energy              =    -841.32790887 Ry
     estimated scf accuracy    <       0.00000003 Ry

     iteration # 28     ecut=    60.00 Ry     beta= 0.70
     Davidson diagonalization with overlap
     ethr =  5.14E-11,  avg # of iterations =  5.3

     total cpu time spent up to now is      310.5 secs

     End of self-consistent calculation

          k = 0.0000 0.0000 0.0000 (  4199 PWs)   bands (ev):

  -120.0465-119.9729 -74.1735 -74.1735 -74.1079 -74.0880 -74.0481 -74.0481
    -8.6465  -4.7828  -1.7450  -1.7450  -1.2397  -0.9162  -0.9162  -0.6518
    -0.6518  -0.5883  -0.5801  -0.5801   0.8079   4.2154   4.2154   5.2446
     6.1100   7.3718

          k = 0.0000-0.0000 0.0918 (  4157 PWs)   bands (ev):

  -120.0465-119.9729 -74.1734 -74.1734 -74.1072 -74.0871 -74.0480 -74.0480
    -8.6443  -4.7952  -1.7435  -1.7435  -1.2306  -0.9082  -0.9082  -0.6478
    -0.6478  -0.6166  -0.5775  -0.5775   0.9575   4.2199   4.2199   4.7825
     6.5244   7.3644

          k = 0.0000-0.0000 0.1835 (  4181 PWs)   bands (ev):

  -120.0465-119.9729 -74.1736 -74.1736 -74.1078 -74.0878 -74.0482 -74.0482
    -8.6399  -4.8204  -1.7455  -1.7455  -1.2455  -0.9147  -0.9147  -0.6654
    -0.6518  -0.6518  -0.5860  -0.5860   1.2776   4.1461   4.2253   4.2253
     7.0426   7.3479

          k = 0.0000 0.0000-0.2753 (  4194 PWs)   bands (ev):

  -120.0465-119.9729 -74.1736 -74.1736 -74.1067 -74.0865 -74.0482 -74.0482
    -8.6377  -4.8323  -1.7463  -1.7463  -1.2249  -0.9136  -0.9136  -0.6808
    -0.6528  -0.6528  -0.5889  -0.5889   1.4711   3.8518   4.2278   4.2278
     7.3399   7.3399

          k = 0.0000 0.1914-0.0000 (  4161 PWs)   bands (ev):

  -120.0465-119.9729 -74.1734 -74.1733 -74.1076 -74.0876 -74.0480 -74.0480
    -8.4858  -4.7271  -1.7544  -1.6585  -1.2850  -0.9165  -0.8958  -0.7004
    -0.6398  -0.6382  -0.5726  -0.4716   1.1053   2.7926   3.7619   5.3915
     6.2644   7.3962

          k = 0.0000 0.1914 0.0918 (  4181 PWs)   bands (ev):

  -120.0465-119.9729 -74.1735 -74.1735 -74.1070 -74.0870 -74.0481 -74.0481
    -8.4838  -4.7365  -1.7548  -1.6601  -1.2819  -0.9190  -0.8926  -0.7021
    -0.6416  -0.6381  -0.5789  -0.4898   1.2247   2.7599   3.7653   5.2368
     6.3258   7.3262

          k = 0.0000 0.1914 0.1835 (  4186 PWs)   bands (ev):

  -120.0465-119.9729 -74.1735 -74.1735 -74.1072 -74.0873 -74.0481 -74.0481
    -8.4799  -4.7562  -1.7553  -1.6605  -1.2907  -0.9215  -0.8969  -0.6992
    -0.6448  -0.6416  -0.5796  -0.5304   1.4882   2.6871   3.7737   4.8480
     6.5406   7.2978

          k = 0.0000 0.1914-0.2753 (  4180 PWs)   bands (ev):

  -120.0465-119.9729 -74.1736 -74.1735 -74.1068 -74.0867 -74.0482 -74.0481
    -8.4779  -4.7660  -1.7539  -1.6610  -1.2824  -0.9199  -0.8940  -0.6969
    -0.6474  -0.6444  -0.5843  -0.5489   1.6473   2.6393   3.7773   4.6380
     6.6543   7.2863

          k = 0.0000 0.3829-0.0000 (  4210 PWs)   bands (ev):

  -120.0465-119.9729 -74.1737 -74.1735 -74.1076 -74.0876 -74.0483 -74.0481
    -8.1251  -4.6302  -1.7176  -1.4669  -1.3628  -0.9349  -0.8792  -0.7706
    -0.6755  -0.6283  -0.5700  -0.4461   1.2271   1.8475   2.9981   4.8040
     5.8680   7.1983

          k = 0.0000 0.3829 0.0918 (  4192 PWs)   bands (ev):

  -120.0465-119.9729 -74.1736 -74.1735 -74.1074 -74.0875 -74.0482 -74.0481
    -8.1239  -4.6337  -1.7165  -1.4660  -1.3670  -0.9347  -0.8679  -0.7698
    -0.6828  -0.6288  -0.5683  -0.4343   1.1497   1.9283   3.0038   5.0126
     5.8341   7.1728

          k = 0.0000 0.3829 0.1835 (  4177 PWs)   bands (ev):

  -120.0465-119.9729 -74.1735 -74.1735 -74.1068 -74.0869 -74.0481 -74.0480
    -8.1214  -4.6409  -1.7118  -1.4664  -1.3714  -0.9319  -0.8556  -0.7578
    -0.6820  -0.6312  -0.5701  -0.4455   1.0562   2.0728   3.0143   5.1943
     5.8821   6.9207

          k = 0.0000 0.3829-0.2753 (  4190 PWs)   bands (ev):

  -120.0465-119.9729 -74.1736 -74.1736 -74.1069 -74.0869 -74.0482 -74.0481
    -8.1202  -4.6448  -1.7106  -1.4674  -1.3752  -0.9344  -0.8593  -0.7484
    -0.6744  -0.6348  -0.5717  -0.4749   1.0293   2.1468   3.0192   5.1096
     5.9314   7.0979

          k = 0.0000-0.5743 0.0000 (  4168 PWs)   bands (ev):

  -120.0465-119.9729 -74.1735 -74.1734 -74.1066 -74.0867 -74.0480 -74.0480
    -7.9189  -4.5945  -1.6423  -1.3517  -1.3380  -0.9362  -0.8813  -0.8257
    -0.7337  -0.6289  -0.5588  -0.5040   0.7080   2.3316   2.6553   4.7993
     5.0323   7.1118

          k = 0.0000-0.5743 0.0918 (  4198 PWs)   bands (ev):

  -120.0465-119.9729 -74.1737 -74.1735 -74.1078 -74.0879 -74.0483 -74.0481
    -7.9183  -4.5952  -1.6493  -1.3539  -1.3497  -0.9398  -0.8874  -0.8242
    -0.7384  -0.6339  -0.5611  -0.5067   0.6401   2.3372   2.6601   4.7945
     5.3043   7.0837

          k = 0.0000-0.5743 0.1835 (  4202 PWs)   bands (ev):

  -120.0465-119.9729 -74.1736 -74.1736 -74.1071 -74.0871 -74.0482 -74.0482
    -7.9168  -4.5952  -1.6418  -1.3591  -1.3544  -0.9388  -0.8762  -0.8006
    -0.7393  -0.6397  -0.5621  -0.4934   0.5272   2.3418   2.6712   5.0332
     5.6502   7.0296

          k = 0.0000-0.5743-0.2753 (  4184 PWs)   bands (ev):

  -120.0465-119.9729 -74.1735 -74.1735 -74.1065 -74.0866 -74.0481 -74.0481
    -7.9161  -4.5952  -1.6361  -1.3616  -1.3538  -0.9364  -0.8694  -0.7845
    -0.7395  -0.6381  -0.5601  -0.4840   0.4733   2.3406   2.6773   5.3233
     5.6300   7.0034

          k = 0.1658 0.2872-0.0000 (  4195 PWs)   bands (ev):

  -120.0465-119.9729 -74.1737 -74.1735 -74.1077 -74.0877 -74.0482 -74.0481
    -8.2221  -4.6511  -1.7321  -1.5209  -1.3456  -0.9466  -0.8695  -0.7479
    -0.6551  -0.6398  -0.5807  -0.4279   1.5953   1.7463   2.8277   5.0627
     6.2013   6.9563

          k = 0.1658 0.2872 0.0918 (  4175 PWs)   bands (ev):

  -120.0465-119.9729 -74.1735 -74.1734 -74.1071 -74.0871 -74.0481 -74.0480
    -8.2206  -4.6562  -1.7298  -1.5198  -1.3479  -0.9408  -0.8638  -0.7360
    -0.6555  -0.6374  -0.5773  -0.4347   1.5362   1.8579   2.8377   5.0421
     6.2818   6.9287

          k = 0.1658 0.2872 0.1835 (  4184 PWs)   bands (ev):

  -120.0465-119.9729 -74.1735 -74.1735 -74.1070 -74.0870 -74.0481 -74.0481
    -8.2177  -4.6668  -1.7286  -1.5207  -1.3529  -0.9421  -0.8597  -0.7232
    -0.6612  -0.6401  -0.5818  -0.4620   1.4871   2.0063   2.8564   5.0656
     6.3048   6.8605

          k = 0.1658 0.2872-0.2753 (  4200 PWs)   bands (ev):

  -120.0465-119.9729 -74.1736 -74.1735 -74.1070 -74.0870 -74.0482 -74.0481
    -8.2162  -4.6724  -1.7288  -1.5218  -1.3552  -0.9420  -0.8591  -0.7190
    -0.6668  -0.6403  -0.5846  -0.4782   1.4727   2.0680   2.8661   5.1189
     6.2111   6.8197

          k = 0.1658 0.4786-0.0000 (  4196 PWs)   bands (ev):

  -120.0465-119.9729 -74.1736 -74.1735 -74.1075 -74.0875 -74.0482 -74.0481
    -7.9241  -4.5899  -1.6138  -1.4143  -1.3135  -0.9730  -0.8457  -0.8026
    -0.7004  -0.6464  -0.5817  -0.4511   0.8869   2.0238   2.3035   4.8233
     5.5093   6.6194

          k = 0.1658 0.4786 0.0918 (  4206 PWs)   bands (ev):

  -120.0465-119.9729 -74.1737 -74.1735 -74.1075 -74.0876 -74.0482 -74.0481
    -7.9234  -4.5902  -1.6145  -1.4192  -1.3164  -0.9721  -0.8388  -0.8021
    -0.7081  -0.6434  -0.5832  -0.4421   0.8215   2.0253   2.3213   5.0026
     5.5942   6.5627

          k = 0.1658 0.4786 0.1835 (  4198 PWs)   bands (ev):

  -120.0465-119.9729 -74.1736 -74.1735 -74.1071 -74.0871 -74.0481 -74.0481
    -7.9219  -4.5907  -1.6093  -1.4262  -1.3185  -0.9689  -0.8299  -0.7836
    -0.7106  -0.6431  -0.5836  -0.4370   0.7161   2.0336   2.3473   5.3093
     5.8506   6.5012

          k = 0.1658 0.4786-0.2753 (  4182 PWs)   bands (ev):

  -120.0465-119.9729 -74.1735 -74.1735 -74.1067 -74.0868 -74.0481 -74.0480
    -7.9211  -4.5910  -1.6066  -1.4273  -1.3180  -0.9652  -0.8280  -0.7691
    -0.7050  -0.6421  -0.5835  -0.4443   0.6740   2.0396   2.3573   5.4512
     5.9356   6.5789

          k = 0.3316 0.5743-0.0000 (  4221 PWs)   bands (ev):

  -120.0465-119.9729 -74.1736 -74.1736 -74.1076 -74.0876 -74.0482 -74.0481
    -7.8201  -4.5696  -1.4896  -1.4234  -1.2677  -1.0420  -0.8164  -0.8107
    -0.7041  -0.6333  -0.6087  -0.4053   0.9318   1.1856   2.5470   4.9903
     5.4357   6.0648

          k = 0.3316 0.5743 0.0918 (  4224 PWs)   bands (ev):

  -120.0465-119.9729 -74.1736 -74.1736 -74.1076 -74.0876 -74.0482 -74.0482
    -7.8196  -4.5682  -1.4899  -1.4299  -1.2674  -1.0417  -0.8152  -0.7998
    -0.7102  -0.6308  -0.6106  -0.4061   0.8715   1.1953   2.5239   5.1577
     5.5939   5.9860

          k = 0.3316 0.5743 0.1835 (  4209 PWs)   bands (ev):

  -120.0465-119.9729 -74.1736 -74.1736 -74.1070 -74.0871 -74.0482 -74.0482
    -7.8187  -4.5653  -1.4855  -1.4405  -1.2651  -1.0387  -0.8055  -0.7759
    -0.7153  -0.6223  -0.6118  -0.4055   0.7580   1.2160   2.4818   5.5368
     5.8451   5.9845

          k = 0.3316 0.5743-0.2753 (  4188 PWs)   bands (ev):

  -120.0465-119.9729 -74.1735 -74.1735 -74.1066 -74.0867 -74.0481 -74.0481
    -7.8182  -4.5638  -1.4824  -1.4448  -1.2626  -1.0334  -0.7992  -0.7624
    -0.7178  -0.6158  -0.6109  -0.4038   0.7033   1.2267   2.4623   5.7628
     5.7814   6.2624

          k = 0.0000-0.1914 0.0918 (  4181 PWs)   bands (ev):

  -120.0465-119.9729 -74.1735 -74.1735 -74.1070 -74.0870 -74.0481 -74.0481
    -8.4838  -4.7365  -1.7541  -1.6600  -1.2826  -0.9197  -0.8967  -0.6917
    -0.6461  -0.6418  -0.5780  -0.4892   1.2263   2.7801   3.7646   5.0701
     6.5684   7.3686

          k = 0.0000-0.1914 0.1835 (  4186 PWs)   bands (ev):

  -120.0465-119.9729 -74.1735 -74.1735 -74.1072 -74.0873 -74.0481 -74.0481
    -8.4799  -4.7563  -1.7550  -1.6606  -1.2901  -0.9212  -0.8984  -0.6898
    -0.6492  -0.6417  -0.5829  -0.5328   1.4886   2.7111   3.7732   4.7342
     6.7098   7.3027

          k = 0.0000-0.3829 0.0918 (  4192 PWs)   bands (ev):

  -120.0465-119.9729 -74.1736 -74.1735 -74.1075 -74.0875 -74.0482 -74.0481
    -8.1239  -4.6341  -1.7149  -1.4665  -1.3646  -0.9321  -0.8792  -0.7575
    -0.6613  -0.6288  -0.5705  -0.4736   1.1740   1.9572   3.0033   4.6718
     6.0835   7.1762

          k = 0.0000-0.3829 0.1835 (  4177 PWs)   bands (ev):

  -120.0465-119.9729 -74.1735 -74.1735 -74.1068 -74.0869 -74.0481 -74.0480
    -8.1214  -4.6410  -1.7113  -1.4661  -1.3711  -0.9326  -0.8697  -0.7429
    -0.6590  -0.6312  -0.5695  -0.4825   1.0788   2.1042   3.0141   4.7853
     6.1617   7.1295

          k =-0.1658-0.4786 0.0918 (  4206 PWs)   bands (ev):

  -120.0465-119.9729 -74.1737 -74.1735 -74.1075 -74.0876 -74.0482 -74.0481
    -7.9234  -4.5904  -1.6134  -1.4186  -1.3149  -0.9717  -0.8476  -0.7931
    -0.6949  -0.6495  -0.5833  -0.4614   0.8360   2.0265   2.3275   4.8394
     5.7210   6.5972

          k =-0.1658-0.4786 0.1835 (  4198 PWs)   bands (ev):

  -120.0465-119.9729 -74.1736 -74.1735 -74.1071 -74.0871 -74.0481 -74.0481
    -7.9219  -4.5908  -1.6103  -1.4248  -1.3177  -0.9679  -0.8393  -0.7752
    -0.6973  -0.6457  -0.5839  -0.4570   0.7304   2.0344   2.3528   5.1162
     5.9541   6.5950

     highest occupied level (ev):     7.3962

!    total energy              =    -841.32790888 Ry
     estimated scf accuracy    <          3.1E-09 Ry

     The total energy is the sum of the following terms:
     one-electron contribution =    -801.49599951 Ry
     hartree contribution      =     403.92947319 Ry
     xc contribution           =     -81.85031734 Ry
     ewald contribution        =    -361.91106521 Ry

     convergence has been achieved in  28 iterations

     Forces acting on atoms (cartesian axes, Ry/au):

     atom    1 type  1   force =     0.00000000    0.00000000   -0.16289679
     atom    2 type  2   force =     0.00000000    0.00000000    0.04014678
     atom    3 type  1   force =     0.00000000   -0.00000000   -0.04240101
     atom    4 type  2   force =     0.00000000    0.00000000    0.16515102
     The non-local contrib.  to forces
     atom    1 type  1   force =     0.00000000   -0.00000000   -0.26052977
     atom    2 type  2   force =     0.00000000    0.00000000   -0.07766782
     atom    3 type  1   force =     0.00000000   -0.00000000   -0.58849714
     atom    4 type  2   force =     0.00000000    0.00000000    0.06326227
     The ionic contribution  to forces
     atom    1 type  1   force =    -0.00000000   -0.00000000  -48.48156063
     atom    2 type  2   force =     0.00000000   -0.00000001   13.27621448
     atom    3 type  1   force =    -0.00000000    0.00000001   21.17113660
     atom    4 type  2   force =    -0.00000000    0.00000000   14.03420954
     The local contribution  to forces
     atom    1 type  1   force =    -0.00000000   -0.00000000   48.57908070
     atom    2 type  2   force =     0.00000000   -0.00000000  -13.15850133
     atom    3 type  1   force =    -0.00000000    0.00000047  -20.62543108
     atom    4 type  2   force =    -0.00000000    0.00000000  -13.93227503
     The core correction contribution to forces
     atom    1 type  1   force =     0.00000000    0.00000000    0.00000000
     atom    2 type  2   force =     0.00000000    0.00000000    0.00000000
     atom    3 type  1   force =     0.00000000    0.00000000    0.00000000
     atom    4 type  2   force =     0.00000000    0.00000000    0.00000000
     The Hubbard contrib.    to forces
     atom    1 type  1   force =     0.00000000    0.00000000    0.00000000
     atom    2 type  2   force =     0.00000000    0.00000000    0.00000000
     atom    3 type  1   force =     0.00000000    0.00000000    0.00000000
     atom    4 type  2   force =     0.00000000    0.00000000    0.00000000
     The SCF correction term to forces
     atom    1 type  1   force =     0.00000000   -0.00000000    0.00010442
     atom    2 type  2   force =     0.00000000   -0.00000000    0.00009294
     atom    3 type  1   force =    -0.00000000    0.00000000    0.00038211
     atom    4 type  2   force =     0.00000000    0.00000000   -0.00005426

     Total force =     0.239207     Total SCF correction =     0.000410


     Computing stress (Cartesian axis) and pressure

          total   stress  (Ry/bohr**3)                   (kbar)     P=      -57.93
  -0.00002461  -0.00000000   0.00000000           -3.62       -0.00        0.00
  -0.00000000  -0.00002461   0.00000000           -0.00       -3.62        0.00
   0.00000000   0.00000000  -0.00113222            0.00        0.00     -166.55

     Energy error            =      1.7E+00 Ry
     Gradient error          =      1.7E-01 Ry/Bohr
     Cell gradient error     =      1.7E+02 kbar

     number of scf cycles    =   2
     number of bfgs steps    =   1

     enthalpy           old  =    -839.6551488468 Ry
     enthalpy           new  =    -841.3279088784 Ry

     CASE: enthalpy          _new < enthalpy          _old

     new trust radius        =       0.1754504578 bohr
     new conv_thr            =       0.0000000100 Ry

     new unit-cell volume =    575.00540 a.u.^3 (    85.20701 Ang^3 )
     density =      3.79788 g/cm^3

CELL_PARAMETERS (alat=  7.21875328)
   1.004030623  -0.000000000   0.000000000
  -0.502015312   0.869516026   0.000000000
   0.000000000   0.000000000   1.750897720

ATOMIC_POSITIONS (alat)
Zn           -0.0000000000        0.0000000000       -0.0852839493
S             0.0000000000        0.0000000000        0.4563856111
Zn            0.0000000000        0.5796773505        0.4719670447
S             0.0000000000        0.5796773505        1.0210860565



     Writing config-only to output data dir /home/paolo/project_labqsm/ZnS_wurtzite/SCRATCH/zns_w.save/
     NEW-OLD atomic charge density approx. for the potential
     extrapolated charge   49.93799, renormalised to   52.00000

     total cpu time spent up to now is      319.6 secs

     Self-consistent Calculation

     iteration #  1     ecut=    60.00 Ry     beta= 0.70
     Davidson diagonalization with overlap
     c_bands:  1 eigenvalues not converged
     c_bands:  1 eigenvalues not converged
     c_bands:  1 eigenvalues not converged
     c_bands:  1 eigenvalues not converged
     c_bands:  1 eigenvalues not converged
     c_bands:  1 eigenvalues not converged
     c_bands:  1 eigenvalues not converged
     ethr =  1.00E-06,  avg # of iterations = 18.1

     total cpu time spent up to now is      339.2 secs

     total energy              =    -834.77752294 Ry
     estimated scf accuracy    <       6.40963931 Ry

     iteration #  2     ecut=    60.00 Ry     beta= 0.70
     Davidson diagonalization with overlap
     ethr =  1.00E-02,  avg # of iterations =  8.8

     total cpu time spent up to now is      352.9 secs

     total energy              =    -820.15706124 Ry
     estimated scf accuracy    <     226.31709670 Ry

     iteration #  3     ecut=    60.00 Ry     beta= 0.70
     Davidson diagonalization with overlap
     ethr =  1.00E-02,  avg # of iterations = 11.3

     total cpu time spent up to now is      367.8 secs

     total energy              =    -841.34184614 Ry
     estimated scf accuracy    <       2.18303738 Ry

     iteration #  4     ecut=    60.00 Ry     beta= 0.70
     Davidson diagonalization with overlap
     ethr =  4.20E-03,  avg # of iterations =  2.1

     total cpu time spent up to now is      372.6 secs

     total energy              =    -841.34398004 Ry
     estimated scf accuracy    <       0.97902416 Ry

     iteration #  5     ecut=    60.00 Ry     beta= 0.70
     Davidson diagonalization with overlap
     ethr =  1.88E-03,  avg # of iterations =  2.1

     total cpu time spent up to now is      377.0 secs

     total energy              =    -841.36177475 Ry
     estimated scf accuracy    <       0.58794207 Ry

     iteration #  6     ecut=    60.00 Ry     beta= 0.70
     Davidson diagonalization with overlap
     ethr =  1.13E-03,  avg # of iterations =  1.5

     total cpu time spent up to now is      381.5 secs

     total energy              =    -841.41086176 Ry
     estimated scf accuracy    <       0.45900854 Ry

     iteration #  7     ecut=    60.00 Ry     beta= 0.70
     Davidson diagonalization with overlap
     ethr =  8.83E-04,  avg # of iterations =  1.0

     total cpu time spent up to now is      385.7 secs

     total energy              =    -841.36084279 Ry
     estimated scf accuracy    <       0.34444004 Ry

     iteration #  8     ecut=    60.00 Ry     beta= 0.70
     Davidson diagonalization with overlap
     ethr =  6.62E-04,  avg # of iterations =  2.1

     total cpu time spent up to now is      390.5 secs

     total energy              =    -841.35227214 Ry
     estimated scf accuracy    <       0.16553232 Ry

     iteration #  9     ecut=    60.00 Ry     beta= 0.70
     Davidson diagonalization with overlap
     ethr =  3.18E-04,  avg # of iterations =  2.8

     total cpu time spent up to now is      395.4 secs

     total energy              =    -841.40286302 Ry
     estimated scf accuracy    <       0.07112635 Ry

     iteration # 10     ecut=    60.00 Ry     beta= 0.70
     Davidson diagonalization with overlap
     ethr =  1.37E-04,  avg # of iterations =  1.5

     total cpu time spent up to now is      399.8 secs

     total energy              =    -841.38748072 Ry
     estimated scf accuracy    <       0.05116048 Ry

     iteration # 11     ecut=    60.00 Ry     beta= 0.70
     Davidson diagonalization with overlap
     ethr =  9.84E-05,  avg # of iterations =  4.5

     total cpu time spent up to now is      405.0 secs

     total energy              =    -841.39444524 Ry
     estimated scf accuracy    <       0.00244181 Ry

     iteration # 12     ecut=    60.00 Ry     beta= 0.70
     Davidson diagonalization with overlap
     ethr =  4.70E-06,  avg # of iterations =  4.8

     total cpu time spent up to now is      411.2 secs

     total energy              =    -841.39717680 Ry
     estimated scf accuracy    <       0.00104784 Ry

     iteration # 13     ecut=    60.00 Ry     beta= 0.70
     Davidson diagonalization with overlap
     ethr =  2.02E-06,  avg # of iterations =  3.1

     total cpu time spent up to now is      416.2 secs

     total energy              =    -841.39719184 Ry
     estimated scf accuracy    <       0.00028438 Ry

     iteration # 14     ecut=    60.00 Ry     beta= 0.70
     Davidson diagonalization with overlap
     ethr =  5.47E-07,  avg # of iterations =  4.5

     total cpu time spent up to now is      421.4 secs

     total energy              =    -841.39719891 Ry
     estimated scf accuracy    <       0.00008769 Ry

     iteration # 15     ecut=    60.00 Ry     beta= 0.70
     Davidson diagonalization with overlap
     ethr =  1.69E-07,  avg # of iterations =  2.4

     total cpu time spent up to now is      426.6 secs

     total energy              =    -841.39720046 Ry
     estimated scf accuracy    <       0.00004026 Ry

     iteration # 16     ecut=    60.00 Ry     beta= 0.70
     Davidson diagonalization with overlap
     ethr =  7.74E-08,  avg # of iterations =  1.8

     total cpu time spent up to now is      431.3 secs

     total energy              =    -841.39719471 Ry
     estimated scf accuracy    <       0.00002529 Ry

     iteration # 17     ecut=    60.00 Ry     beta= 0.70
     Davidson diagonalization with overlap
     ethr =  4.86E-08,  avg # of iterations =  3.1

     total cpu time spent up to now is      436.2 secs

     total energy              =    -841.39719550 Ry
     estimated scf accuracy    <       0.00000333 Ry

     iteration # 18     ecut=    60.00 Ry     beta= 0.70
     Davidson diagonalization with overlap
     ethr =  6.40E-09,  avg # of iterations =  5.5

     total cpu time spent up to now is      442.4 secs

     total energy              =    -841.39719640 Ry
     estimated scf accuracy    <       0.00000068 Ry

     iteration # 19     ecut=    60.00 Ry     beta= 0.70
     Davidson diagonalization with overlap
     ethr =  1.31E-09,  avg # of iterations =  4.5

     total cpu time spent up to now is      447.7 secs

     total energy              =    -841.39719653 Ry
     estimated scf accuracy    <       0.00000005 Ry

     iteration # 20     ecut=    60.00 Ry     beta= 0.70
     Davidson diagonalization with overlap
     ethr =  1.03E-10,  avg # of iterations =  3.2

     total cpu time spent up to now is      453.3 secs

     total energy              =    -841.39719653 Ry
     estimated scf accuracy    <       0.00000004 Ry

     iteration # 21     ecut=    60.00 Ry     beta= 0.70
     Davidson diagonalization with overlap
     ethr =  8.53E-11,  avg # of iterations =  3.1

     total cpu time spent up to now is      458.1 secs

     End of self-consistent calculation

          k = 0.0000 0.0000 0.0000 (  4199 PWs)   bands (ev):

  -119.5111-119.4054 -73.6692 -73.6692 -73.6206 -73.5597 -73.5109 -73.5109
    -8.2172  -4.2329  -1.2925  -1.2925  -0.7658  -0.4660  -0.4660  -0.1623
    -0.1623  -0.1420  -0.1068  -0.1068   1.1315   4.6627   4.6627   5.6762
     6.8775   7.9299

          k =-0.0000-0.0000 0.0952 (  4157 PWs)   bands (ev):

  -119.5111-119.4053 -73.6692 -73.6692 -73.6204 -73.5595 -73.5109 -73.5109
    -8.2138  -4.2514  -1.2915  -1.2915  -0.7689  -0.4617  -0.4617  -0.1886
    -0.1604  -0.1604  -0.1054  -0.1054   1.3275   4.6689   4.6689   5.2350
     7.2543   7.9181

          k =-0.0000-0.0000 0.1904 (  4181 PWs)   bands (ev):

  -119.5111-119.4054 -73.6692 -73.6692 -73.6206 -73.5597 -73.5110 -73.5110
    -8.2070  -4.2882  -1.2929  -1.2929  -0.7903  -0.4657  -0.4657  -0.2578
    -0.1633  -0.1633  -0.1074  -0.1074   1.7496   4.5475   4.6786   4.6786
     7.8933   7.8933

          k = 0.0000 0.0000-0.2856 (  4194 PWs)   bands (ev):

  -119.5111-119.4054 -73.6692 -73.6692 -73.6203 -73.5594 -73.5110 -73.5110
    -8.2036  -4.3062  -1.2938  -1.2938  -0.7900  -0.4671  -0.4671  -0.2803
    -0.1645  -0.1645  -0.1080  -0.1080   2.0062   4.2025   4.6832   4.6832
     7.8809   7.8809

          k = 0.0000 0.1917-0.0000 (  4161 PWs)   bands (ev):

  -119.5111-119.4053 -73.6692 -73.6692 -73.6205 -73.5596 -73.5109 -73.5109
    -8.0550  -4.1752  -1.3052  -1.2046  -0.8210  -0.4703  -0.4458  -0.2451
    -0.1521  -0.1494  -0.0990  -0.0119   1.4469   3.2429   4.2041   5.8083
     6.8722   7.8993

          k = 0.0000 0.1917 0.0952 (  4181 PWs)   bands (ev):

  -119.5111-119.4053 -73.6692 -73.6692 -73.6204 -73.5595 -73.5109 -73.5109
    -8.0520  -4.1895  -1.3061  -1.2059  -0.8249  -0.4727  -0.4451  -0.2504
    -0.1549  -0.1504  -0.1014  -0.0404   1.6036   3.2083   4.2100   5.6532
     6.9304   7.8743

          k = 0.0000 0.1917 0.1904 (  4186 PWs)   bands (ev):

  -119.5111-119.4054 -73.6692 -73.6692 -73.6205 -73.5596 -73.5110 -73.5110
    -8.0460  -4.2183  -1.3062  -1.2064  -0.8391  -0.4730  -0.4475  -0.2581
    -0.1594  -0.1578  -0.1014  -0.0841   1.9513   3.1218   4.2230   5.2564
     7.1160   7.8319

          k = 0.0000 0.1917-0.2856 (  4180 PWs)   bands (ev):

  -119.5111-119.4053 -73.6692 -73.6692 -73.6203 -73.5594 -73.5110 -73.5110
    -8.0430  -4.2326  -1.3052  -1.2071  -0.8414  -0.4731  -0.4472  -0.2592
    -0.1692  -0.1585  -0.1016  -0.0987   2.1660   3.0525   4.2290   5.0352
     7.2029   7.8139

          k = 0.0000 0.3834-0.0000 (  4210 PWs)   bands (ev):

  -119.5111-119.4053 -73.6694 -73.6692 -73.6205 -73.5596 -73.5110 -73.5109
    -7.6910  -4.0747  -1.2745  -1.0081  -0.9072  -0.4893  -0.4284  -0.3148
    -0.1883  -0.1506  -0.0826   0.0138   1.6964   2.2292   3.4316   5.1720
     6.2831   7.7471

          k = 0.0000 0.3834 0.0952 (  4192 PWs)   bands (ev):

  -119.5111-119.4053 -73.6693 -73.6692 -73.6205 -73.5596 -73.5110 -73.5109
    -7.6891  -4.0795  -1.2741  -1.0075  -0.9142  -0.4889  -0.4167  -0.3194
    -0.2003  -0.1515  -0.0821   0.0312   1.5804   2.3526   3.4401   5.3752
     6.2802   7.7096

          k = 0.0000 0.3834 0.1904 (  4177 PWs)   bands (ev):

  -119.5111-119.4053 -73.6693 -73.6692 -73.6203 -73.5594 -73.5110 -73.5109
    -7.6852  -4.0898  -1.2712  -1.0082  -0.9250  -0.4866  -0.4068  -0.3049
    -0.2074  -0.1556  -0.0818   0.0124   1.4582   2.5407   3.4562   5.5411
     6.4161   7.5726

          k = 0.0000 0.3834-0.2856 (  4190 PWs)   bands (ev):

  -119.5111-119.4053 -73.6693 -73.6692 -73.6204 -73.5595 -73.5110 -73.5110
    -7.6832  -4.0953  -1.2691  -1.0089  -0.9311  -0.4861  -0.4108  -0.2831
    -0.2031  -0.1597  -0.0818  -0.0300   1.4279   2.6298   3.4641   5.4827
     6.4595   7.6089

          k =-0.0000-0.5750 0.0000 (  4168 PWs)   bands (ev):

  -119.5111-119.4053 -73.6693 -73.6692 -73.6202 -73.5594 -73.5110 -73.5109
    -7.4827  -4.0376  -1.2044  -0.8920  -0.8910  -0.4931  -0.4330  -0.3921
    -0.2450  -0.1577  -0.0666  -0.0430   1.1882   2.7667   3.0839   5.1353
     5.3580   7.6567

          k =-0.0000-0.5750 0.0952 (  4198 PWs)   bands (ev):

  -119.5111-119.4053 -73.6694 -73.6692 -73.6206 -73.5597 -73.5110 -73.5110
    -7.4816  -4.0375  -1.2073  -0.9025  -0.8922  -0.4945  -0.4327  -0.3828
    -0.2490  -0.1613  -0.0678  -0.0414   1.0967   2.7798   3.0922   5.1111
     5.7106   7.6154

          k =-0.0000-0.5750 0.1904 (  4202 PWs)   bands (ev):

  -119.5111-119.4053 -73.6694 -73.6693 -73.6204 -73.5595 -73.5110 -73.5110
    -7.4793  -4.0370  -1.2032  -0.9180  -0.8928  -0.4926  -0.4225  -0.3506
    -0.2555  -0.1678  -0.0683  -0.0261   0.9321   2.7815   3.1096   5.4010
     6.1485   7.5359

          k =-0.0000-0.5750-0.2856 (  4184 PWs)   bands (ev):

  -119.5111-119.4053 -73.6693 -73.6692 -73.6202 -73.5594 -73.5110 -73.5110
    -7.4782  -4.0368  -1.2003  -0.9247  -0.8921  -0.4896  -0.4174  -0.3284
    -0.2616  -0.1689  -0.0677  -0.0136   0.8527   2.7739   3.1189   5.7547
     6.1283   7.4978

          k = 0.1660 0.2875-0.0000 (  4195 PWs)   bands (ev):

  -119.5111-119.4054 -73.6693 -73.6692 -73.6206 -73.5597 -73.5110 -73.5109
    -7.7888  -4.0964  -1.2874  -1.0629  -0.8881  -0.5005  -0.4191  -0.2921
    -0.1650  -0.1565  -0.0974   0.0339   1.9935   2.1799   3.2598   5.4403
     6.6687   7.5149

          k = 0.1660 0.2875 0.0952 (  4175 PWs)   bands (ev):

  -119.5111-119.4053 -73.6693 -73.6692 -73.6204 -73.5595 -73.5110 -73.5109
    -7.7865  -4.1040  -1.2865  -1.0623  -0.8928  -0.4962  -0.4157  -0.2832
    -0.1701  -0.1544  -0.0972   0.0176   1.9339   2.3119   3.2731   5.4029
     6.7883   7.4789

          k = 0.1660 0.2875 0.1904 (  4184 PWs)   bands (ev):

  -119.5111-119.4053 -73.6693 -73.6692 -73.6204 -73.5595 -73.5110 -73.5110
    -7.7820  -4.1193  -1.2854  -1.0635  -0.9041  -0.4957  -0.4123  -0.2671
    -0.1848  -0.1542  -0.1021  -0.0181   1.8890   2.4918   3.2995   5.4190
     6.8665   7.3922

          k = 0.1660 0.2875-0.2856 (  4200 PWs)   bands (ev):

  -119.5111-119.4053 -73.6693 -73.6693 -73.6204 -73.5595 -73.5110 -73.5110
    -7.7798  -4.1271  -1.2851  -1.0644  -0.9096  -0.4957  -0.4101  -0.2575
    -0.1970  -0.1546  -0.1072  -0.0335   1.8778   2.5651   3.3133   5.4837
     6.7785   7.3302

          k = 0.1660 0.4792-0.0000 (  4196 PWs)   bands (ev):

  -119.5111-119.4053 -73.6693 -73.6693 -73.6205 -73.5596 -73.5110 -73.5110
    -7.4880  -4.0325  -1.1757  -0.9581  -0.8529  -0.5275  -0.4002  -0.3522
    -0.2263  -0.1597  -0.0896   0.0091   1.3627   2.4513   2.7335   5.1486
     5.8549   7.1475

          k = 0.1660 0.4792 0.0952 (  4206 PWs)   bands (ev):

  -119.5111-119.4053 -73.6694 -73.6693 -73.6205 -73.5596 -73.5110 -73.5110
    -7.4868  -4.0325  -1.1760  -0.9651  -0.8556  -0.5262  -0.3918  -0.3501
    -0.2346  -0.1601  -0.0907   0.0233   1.2697   2.4534   2.7618   5.3430
     5.9743   7.0787

          k = 0.1660 0.4792 0.1904 (  4198 PWs)   bands (ev):

  -119.5111-119.4053 -73.6693 -73.6693 -73.6204 -73.5595 -73.5110 -73.5110
    -7.4844  -4.0325  -1.1736  -0.9765  -0.8589  -0.5227  -0.3832  -0.3238
    -0.2420  -0.1614  -0.0919   0.0282   1.1194   2.4677   2.7925   5.6931
     6.3016   7.0117

          k = 0.1660 0.4792-0.2856 (  4182 PWs)   bands (ev):

  -119.5111-119.4053 -73.6693 -73.6692 -73.6203 -73.5594 -73.5110 -73.5110
    -7.4832  -4.0326  -1.1720  -0.9811  -0.8597  -0.5201  -0.3821  -0.3007
    -0.2410  -0.1597  -0.0937   0.0160   1.0599   2.4770   2.7999   5.8721
     6.4226   7.0779

          k = 0.3320 0.5750-0.0000 (  4221 PWs)   bands (ev):

  -119.5111-119.4053 -73.6693 -73.6693 -73.6205 -73.5596 -73.5110 -73.5110
    -7.3828  -4.0110  -1.0558  -0.9688  -0.8015  -0.5888  -0.3720  -0.3630
    -0.2444  -0.1365  -0.1138   0.0567   1.4181   1.6005   3.0083   5.3024
     5.7194   6.5784

          k = 0.3320 0.5750 0.0952 (  4224 PWs)   bands (ev):

  -119.5111-119.4053 -73.6693 -73.6693 -73.6205 -73.5597 -73.5110 -73.5110
    -7.3821  -4.0085  -1.0576  -0.9767  -0.8014  -0.5883  -0.3619  -0.3535
    -0.2503  -0.1345  -0.1149   0.0542   1.3303   1.6156   2.9733   5.5163
     5.9099   6.4702

          k = 0.3320 0.5750 0.1904 (  4209 PWs)   bands (ev):

  -119.5111-119.4053 -73.6693 -73.6693 -73.6204 -73.5595 -73.5110 -73.5110
    -7.3806  -4.0034  -1.0577  -0.9921  -0.8004  -0.5859  -0.3548  -0.3147
    -0.2588  -0.1274  -0.1158   0.0507   1.1641   1.6465   2.9107   6.0024
     6.2823   6.3719

          k = 0.3320 0.5750-0.2856 (  4188 PWs)   bands (ev):

  -119.5111-119.4053 -73.6693 -73.6693 -73.6203 -73.5594 -73.5110 -73.5110
    -7.3798  -4.0008  -1.0566  -0.9999  -0.7996  -0.5838  -0.3492  -0.2949
    -0.2615  -0.1215  -0.1156   0.0495   1.0842   1.6622   2.8823   6.1987
     6.3015   6.6957

          k =-0.0000-0.1917 0.0952 (  4181 PWs)   bands (ev):

  -119.5111-119.4053 -73.6692 -73.6692 -73.6204 -73.5595 -73.5109 -73.5109
    -8.0520  -4.1896  -1.3052  -1.2060  -0.8245  -0.4733  -0.4481  -0.2417
    -0.1559  -0.1553  -0.1002  -0.0440   1.6064   3.2311   4.2094   5.4894
     7.1510   7.8807

          k =-0.0000-0.1917 0.1904 (  4186 PWs)   bands (ev):

  -119.5111-119.4054 -73.6692 -73.6692 -73.6205 -73.5596 -73.5110 -73.5110
    -8.0460  -4.2184  -1.3056  -1.2068  -0.8389  -0.4737  -0.4498  -0.2485
    -0.1658  -0.1566  -0.1013  -0.0870   1.9521   3.1498   4.2224   5.1369
     7.2671   7.8380

          k =-0.0000-0.3834 0.0952 (  4192 PWs)   bands (ev):

  -119.5111-119.4053 -73.6693 -73.6692 -73.6205 -73.5596 -73.5110 -73.5109
    -7.6890  -4.0800  -1.2722  -1.0082  -0.9112  -0.4883  -0.4305  -0.2965
    -0.1714  -0.1518  -0.0813  -0.0300   1.6133   2.3878   3.4396   5.0118
     6.5619   7.7137

          k =-0.0000-0.3834 0.1904 (  4177 PWs)   bands (ev):

  -119.5111-119.4053 -73.6693 -73.6692 -73.6203 -73.5594 -73.5110 -73.5110
    -7.6851  -4.0902  -1.2694  -1.0086  -0.9234  -0.4871  -0.4215  -0.2789
    -0.1739  -0.1558  -0.0804  -0.0539   1.4883   2.5807   3.4560   5.1311
     6.6956   7.6446

          k =-0.1660-0.4792 0.0952 (  4206 PWs)   bands (ev):

  -119.5111-119.4053 -73.6694 -73.6693 -73.6205 -73.5596 -73.5110 -73.5110
    -7.4868  -4.0327  -1.1755  -0.9640  -0.8543  -0.5257  -0.4012  -0.3354
    -0.2246  -0.1605  -0.0921  -0.0046   1.2892   2.4545   2.7703   5.1597
     6.1340   7.0980

          k =-0.1660-0.4792 0.1904 (  4198 PWs)   bands (ev):

  -119.5111-119.4053 -73.6693 -73.6693 -73.6204 -73.5595 -73.5110 -73.5110
    -7.4844  -4.0327  -1.1737  -0.9750  -0.8581  -0.5221  -0.3914  -0.3101
    -0.2315  -0.1583  -0.0948  -0.0033   1.1394   2.4679   2.7999   5.4839
     6.4500   7.0694

     highest occupied level (ev):     7.9299

!    total energy              =    -841.39719652 Ry
     estimated scf accuracy    <          7.1E-09 Ry

     The total energy is the sum of the following terms:
     one-electron contribution =    -771.39715987 Ry
     hartree contribution      =     389.82405161 Ry
     xc contribution           =     -81.89140681 Ry
     ewald contribution        =    -377.93268145 Ry

     convergence has been achieved in  21 iterations

     Forces acting on atoms (cartesian axes, Ry/au):

     atom    1 type  1   force =     0.00000000    0.00000000   -0.17531920
     atom    2 type  2   force =    -0.00000000   -0.00000000    0.02238613
     atom    3 type  1   force =     0.00000000    0.00000000   -0.03434343
     atom    4 type  2   force =    -0.00000000   -0.00000000    0.18727649
     The non-local contrib.  to forces
     atom    1 type  1   force =     0.00000000    0.00000000   -0.24049823
     atom    2 type  2   force =     0.00000000    0.00000000   -0.12535945
     atom    3 type  1   force =    -0.00000000   -0.00000000   -0.54913347
     atom    4 type  2   force =    -0.00000000   -0.00000000    0.14182293
     The ionic contribution  to forces
     atom    1 type  1   force =    -0.00000000   -0.00000000  -43.82043985
     atom    2 type  2   force =     0.00000000   -0.00000001   12.77226669
     atom    3 type  1   force =    -0.00000000    0.00000001   19.48798164
     atom    4 type  2   force =    -0.00000000    0.00000000   11.56019152
     The local contribution  to forces
     atom    1 type  1   force =     0.00000000   -0.00000000   43.88560570
     atom    2 type  2   force =     0.00000000   -0.00000000  -12.62441251
     atom    3 type  1   force =    -0.00000000    0.00000047  -18.97271138
     atom    4 type  2   force =     0.00000000    0.00000000  -11.51481711
     The core correction contribution to forces
     atom    1 type  1   force =     0.00000000    0.00000000    0.00000000
     atom    2 type  2   force =     0.00000000    0.00000000    0.00000000
     atom    3 type  1   force =     0.00000000    0.00000000    0.00000000
     atom    4 type  2   force =     0.00000000    0.00000000    0.00000000
     The Hubbard contrib.    to forces
     atom    1 type  1   force =     0.00000000    0.00000000    0.00000000
     atom    2 type  2   force =     0.00000000    0.00000000    0.00000000
     atom    3 type  1   force =     0.00000000    0.00000000    0.00000000
     atom    4 type  2   force =     0.00000000    0.00000000    0.00000000
     The SCF correction term to forces
     atom    1 type  1   force =    -0.00000000    0.00000000   -0.00001502
     atom    2 type  2   force =     0.00000000    0.00000000   -0.00013679
     atom    3 type  1   force =    -0.00000000    0.00000000   -0.00050842
     atom    4 type  2   force =     0.00000000   -0.00000000    0.00005095

     Total force =     0.259788     Total SCF correction =     0.000529


     Computing stress (Cartesian axis) and pressure

          total   stress  (Ry/bohr**3)                   (kbar)     P=       14.61
   0.00026442  -0.00000000   0.00000000           38.90       -0.00        0.00
  -0.00000000   0.00026442  -0.00000000           -0.00       38.90       -0.00
   0.00000000  -0.00000000  -0.00023089            0.00       -0.00      -33.96

     Energy error            =      6.9E-02 Ry
     Gradient error          =      1.9E-01 Ry/Bohr
     Cell gradient error     =      3.9E+01 kbar

     number of scf cycles    =   3
     number of bfgs steps    =   2

     enthalpy           old  =    -841.3279088784 Ry
     enthalpy           new  =    -841.3971965245 Ry

     CASE: enthalpy          _new < enthalpy          _old

     new trust radius        =       0.1963181500 bohr
     new conv_thr            =       0.0000000100 Ry

     new unit-cell volume =    560.82938 a.u.^3 (    83.10634 Ang^3 )
     density =      3.89388 g/cm^3

CELL_PARAMETERS (alat=  7.21875328)
   1.008920162  -0.000000000   0.000000000
  -0.504460081   0.873750491   0.000000000
   0.000000000   0.000000000   1.691219317

ATOMIC_POSITIONS (alat)
Zn           -0.0000000000        0.0000000000       -0.1074970683
S             0.0000000000        0.0000000000        0.4377119524
Zn            0.0000000000        0.5825003272        0.4578496522
S             0.0000000000        0.5825003272        1.0125515193



     Writing config-only to output data dir /home/paolo/project_labqsm/ZnS_wurtzite/SCRATCH/zns_w.save/
     NEW-OLD atomic charge density approx. for the potential
     extrapolated charge   50.68727, renormalised to   52.00000

     total cpu time spent up to now is      467.2 secs

     Self-consistent Calculation

     iteration #  1     ecut=    60.00 Ry     beta= 0.70
     Davidson diagonalization with overlap
     c_bands:  1 eigenvalues not converged
     c_bands:  1 eigenvalues not converged
     c_bands:  1 eigenvalues not converged
     c_bands:  1 eigenvalues not converged
     c_bands:  1 eigenvalues not converged
     c_bands:  1 eigenvalues not converged
     c_bands:  1 eigenvalues not converged
     c_bands:  1 eigenvalues not converged
     c_bands:  1 eigenvalues not converged
     c_bands:  1 eigenvalues not converged
     c_bands:  1 eigenvalues not converged
     c_bands:  1 eigenvalues not converged
     c_bands:  1 eigenvalues not converged
     c_bands:  1 eigenvalues not converged
     c_bands:  1 eigenvalues not converged
     c_bands:  1 eigenvalues not converged
     c_bands:  1 eigenvalues not converged
     c_bands:  1 eigenvalues not converged
     ethr =  1.00E-06,  avg # of iterations = 18.1

     total cpu time spent up to now is      486.3 secs

     total energy              =    -838.80040540 Ry
     estimated scf accuracy    <       2.56252884 Ry

     iteration #  2     ecut=    60.00 Ry     beta= 0.70
     Davidson diagonalization with overlap
     ethr =  4.93E-03,  avg # of iterations =  7.1

     total cpu time spent up to now is      497.4 secs

     total energy              =    -836.18370676 Ry
     estimated scf accuracy    <      41.70221053 Ry

     iteration #  3     ecut=    60.00 Ry     beta= 0.70
     Davidson diagonalization with overlap
     ethr =  4.93E-03,  avg # of iterations =  6.7

     total cpu time spent up to now is      507.0 secs

     total energy              =    -841.52006887 Ry
     estimated scf accuracy    <       1.69972223 Ry

     iteration #  4     ecut=    60.00 Ry     beta= 0.70
     Davidson diagonalization with overlap
     ethr =  3.27E-03,  avg # of iterations =  2.0

     total cpu time spent up to now is      511.8 secs

     total energy              =    -841.54182861 Ry
     estimated scf accuracy    <       0.59205621 Ry

     iteration #  5     ecut=    60.00 Ry     beta= 0.70
     Davidson diagonalization with overlap
     ethr =  1.14E-03,  avg # of iterations =  1.6

     total cpu time spent up to now is      516.3 secs

     total energy              =    -841.50352646 Ry
     estimated scf accuracy    <       0.37564712 Ry

     iteration #  6     ecut=    60.00 Ry     beta= 0.70
     Davidson diagonalization with overlap
     ethr =  7.22E-04,  avg # of iterations =  2.0

     total cpu time spent up to now is      521.0 secs

     total energy              =    -841.47367022 Ry
     estimated scf accuracy    <       0.20130314 Ry

     iteration #  7     ecut=    60.00 Ry     beta= 0.70
     Davidson diagonalization with overlap
     ethr =  3.87E-04,  avg # of iterations =  2.2

     total cpu time spent up to now is      525.8 secs

     total energy              =    -841.47024807 Ry
     estimated scf accuracy    <       0.07125533 Ry

     iteration #  8     ecut=    60.00 Ry     beta= 0.70
     Davidson diagonalization with overlap
     ethr =  1.37E-04,  avg # of iterations =  2.8

     total cpu time spent up to now is      530.6 secs

     total energy              =    -841.46952336 Ry
     estimated scf accuracy    <       0.02386725 Ry

     iteration #  9     ecut=    60.00 Ry     beta= 0.70
     Davidson diagonalization with overlap
     ethr =  4.59E-05,  avg # of iterations =  2.6

     total cpu time spent up to now is      535.4 secs

     total energy              =    -841.46933647 Ry
     estimated scf accuracy    <       0.00803049 Ry

     iteration # 10     ecut=    60.00 Ry     beta= 0.70
     Davidson diagonalization with overlap
     ethr =  1.54E-05,  avg # of iterations =  3.5

     total cpu time spent up to now is      540.3 secs

     total energy              =    -841.46919869 Ry
     estimated scf accuracy    <       0.00195775 Ry

     iteration # 11     ecut=    60.00 Ry     beta= 0.70
     Davidson diagonalization with overlap
     ethr =  3.76E-06,  avg # of iterations =  4.6

     total cpu time spent up to now is      546.2 secs

     total energy              =    -841.46965201 Ry
     estimated scf accuracy    <       0.00000654 Ry

     iteration # 12     ecut=    60.00 Ry     beta= 0.70
     Davidson diagonalization with overlap
     ethr =  1.26E-08,  avg # of iterations =  6.6

     total cpu time spent up to now is      554.7 secs

     total energy              =    -841.47052924 Ry
     estimated scf accuracy    <       0.00022154 Ry

     iteration # 13     ecut=    60.00 Ry     beta= 0.70
     Davidson diagonalization with overlap
     ethr =  1.26E-08,  avg # of iterations =  3.4

     total cpu time spent up to now is      559.8 secs

     total energy              =    -841.47048995 Ry
     estimated scf accuracy    <       0.00016593 Ry

     iteration # 14     ecut=    60.00 Ry     beta= 0.70
     Davidson diagonalization with overlap
     ethr =  1.26E-08,  avg # of iterations =  6.4

     total cpu time spent up to now is      566.8 secs

     total energy              =    -841.47049541 Ry
     estimated scf accuracy    <       0.00002085 Ry

     iteration # 15     ecut=    60.00 Ry     beta= 0.70
     Davidson diagonalization with overlap
     ethr =  1.26E-08,  avg # of iterations =  4.4

     total cpu time spent up to now is      572.3 secs

     total energy              =    -841.47049697 Ry
     estimated scf accuracy    <       0.00000147 Ry

     iteration # 16     ecut=    60.00 Ry     beta= 0.70
     Davidson diagonalization with overlap
     ethr =  2.83E-09,  avg # of iterations =  4.5

     total cpu time spent up to now is      577.6 secs

     total energy              =    -841.47049720 Ry
     estimated scf accuracy    <       0.00000003 Ry

     iteration # 17     ecut=    60.00 Ry     beta= 0.70
     Davidson diagonalization with overlap
     ethr =  5.10E-11,  avg # of iterations =  5.7

     total cpu time spent up to now is      584.7 secs

     End of self-consistent calculation

          k = 0.0000 0.0000 0.0000 (  4199 PWs)   bands (ev):

  -119.1271-118.9230 -73.2962 -73.2962 -73.2586 -73.0907 -73.0424 -73.0424
    -7.7919  -3.9012  -0.8945  -0.8945  -0.3462  -0.0992  -0.0992   0.2383
     0.2754   0.2754   0.3199   0.3199   1.3860   4.9826   4.9826   5.9834
     7.5515   8.1809

          k =-0.0000-0.0000 0.0985 (  4157 PWs)   bands (ev):

  -119.1271-118.9230 -73.2961 -73.2961 -73.2586 -73.0907 -73.0424 -73.0424
    -7.7866  -3.9265  -0.8943  -0.8943  -0.3625  -0.0969  -0.0969   0.1712
     0.2761   0.2761   0.3218   0.3218   1.6372   4.9917   4.9917   5.5622
     7.8954   8.1629

          k =-0.0000-0.0000 0.1971 (  4181 PWs)   bands (ev):

  -119.1271-118.9230 -73.2962 -73.2962 -73.2586 -73.0907 -73.0424 -73.0424
    -7.7759  -3.9767  -0.8956  -0.8956  -0.3964  -0.0987  -0.0987   0.0815
     0.2731   0.2731   0.3226   0.3226   2.1693   4.8327   5.0084   5.0084
     8.1259   8.1259

          k = 0.0000 0.0000-0.2956 (  4194 PWs)   bands (ev):

  -119.1271-118.9230 -73.2962 -73.2962 -73.2586 -73.0907 -73.0424 -73.0424
    -7.7705  -4.0014  -0.8966  -0.8966  -0.4111  -0.1004  -0.1004   0.0543
[...]

  -117.2051-117.1550 -71.3687 -71.3687 -71.3631 -71.3177 -71.3168 -71.3168
    -5.4985  -4.5462   1.3760   1.3760   1.3806   1.4882   1.4882   1.8476
     1.8476   1.9378   1.9378   2.0746   2.3770   6.9180   6.9180   7.6929
     7.8117   7.8117

          k = 0.0000 0.0000 0.1017 (  4157 PWs)   bands (ev):

  -117.2051-117.1550 -71.3687 -71.3687 -71.3631 -71.3177 -71.3168 -71.3168
    -5.4453  -4.6206   1.3763   1.3784   1.3784   1.4826   1.4826   1.7572
     1.8537   1.8537   1.9358   1.9358   2.9257   6.9726   6.9726   7.1086
     7.7471   7.7471

          k = 0.0000 0.0000 0.2035 (  4181 PWs)   bands (ev):

  -117.2051-117.1550 -71.3687 -71.3687 -71.3631 -71.3177 -71.3168 -71.3168
    -5.2961  -4.8114   1.3728   1.3838   1.3838   1.4695   1.4695   1.5169
     1.8672   1.8672   1.9268   1.9268   3.8119   6.0165   7.1233   7.1233
     7.5756   7.5756

          k =-0.0000-0.0000-0.3052 (  4194 PWs)   bands (ev):

  -117.2051-117.1550 -71.3687 -71.3687 -71.3631 -71.3177 -71.3168 -71.3168
    -5.1281  -5.0000   1.3852   1.3872   1.3872   1.4275   1.4621   1.4621
     1.8759   1.8759   1.9201   1.9201   4.8309   4.9120   7.2986   7.2986
     7.3897   7.3897

          k = 0.0000 0.1944 0.0000 (  4161 PWs)   bands (ev):

  -117.2051-117.1550 -71.3688 -71.3687 -71.3631 -71.3177 -71.3169 -71.3168
    -5.3095  -4.4399   1.3642   1.4153   1.4194   1.5079   1.5394   1.8173
     1.8494   1.8631   1.9463   2.1457   2.6377   5.6713   6.4801   6.5133
     7.4512   7.5766

          k = 0.0000 0.1944 0.1017 (  4181 PWs)   bands (ev):

  -117.2051-117.1550 -71.3688 -71.3688 -71.3631 -71.3177 -71.3169 -71.3168
    -5.2600  -4.5057   1.3633   1.4102   1.4194   1.5049   1.5311   1.7358
     1.8484   1.8558   1.9404   1.9950   3.0933   5.7408   6.2431   6.5760
     7.2983   7.4959

          k = 0.0000 0.1944 0.2035 (  4186 PWs)   bands (ev):

  -117.2051-117.1550 -71.3688 -71.3688 -71.3631 -71.3177 -71.3169 -71.3168
    -5.1220  -4.6758   1.3594   1.3955   1.4293   1.4945   1.5149   1.5543
     1.8646   1.8699   1.9289   1.9404   3.8891   5.5642   6.0428   6.7512
     6.8898   7.2859

          k = 0.0000 0.1944-0.3052 (  4180 PWs)   bands (ev):

  -117.2051-117.1550 -71.3688 -71.3688 -71.3631 -71.3177 -71.3169 -71.3168
    -4.9710  -4.8426   1.3566   1.3887   1.4347   1.4748   1.5018   1.5067
     1.8773   1.8807   1.9215   1.9224   4.7403   4.7937   6.3768   6.4471
     6.9617   7.0584

          k = 0.0000 0.3888 0.0000 (  4210 PWs)   bands (ev):

  -117.2051-117.1550 -71.3689 -71.3688 -71.3631 -71.3177 -71.3169 -71.3169
    -4.8565  -4.2454   1.3734   1.4765   1.4800   1.6326   1.6473   1.7631
     1.8496   1.8794   1.9641   2.2322   3.0386   4.1627   4.7713   5.8408
     6.7136   7.1133

          k = 0.0000 0.3888 0.1017 (  4192 PWs)   bands (ev):

  -117.2051-117.1550 -71.3689 -71.3688 -71.3631 -71.3177 -71.3169 -71.3169
    -4.8195  -4.2861   1.3756   1.4520   1.4861   1.6304   1.6354   1.7193
     1.8690   1.8848   1.9573   2.1301   3.1767   4.2778   4.7464   5.9153
     6.7474   7.0141

          k = 0.0000 0.3888 0.2035 (  4177 PWs)   bands (ev):

  -117.2051-117.1550 -71.3689 -71.3688 -71.3631 -71.3177 -71.3169 -71.3169
    -4.7194  -4.3937   1.3693   1.4072   1.5097   1.6090   1.6151   1.6470
     1.8916   1.9002   1.9452   2.0108   3.4334   4.0877   5.2374   6.1230
     6.5808   6.7585

          k = 0.0000 0.3888-0.3052 (  4190 PWs)   bands (ev):

  -117.2051-117.1550 -71.3689 -71.3688 -71.3631 -71.3177 -71.3169 -71.3169
    -4.6228  -4.4940   1.3497   1.4010   1.5265   1.5912   1.5914   1.6280
     1.8921   1.9301   1.9412   1.9557   3.7202   3.7660   5.9742   6.0214
     6.3759   6.4822

          k =-0.0000-0.5832-0.0000 (  4168 PWs)   bands (ev):

  -117.2051-117.1550 -71.3689 -71.3688 -71.3631 -71.3177 -71.3170 -71.3169
    -4.5475  -4.1959   1.3940   1.4961   1.6146   1.6482   1.7031   1.7733
     1.9121   1.9800   2.0461   2.0706   2.9065   3.6080   4.4701   5.5406
     6.0748   6.8929

          k =-0.0000-0.5832 0.1017 (  4198 PWs)   bands (ev):

  -117.2051-117.1550 -71.3689 -71.3688 -71.3631 -71.3177 -71.3170 -71.3169
    -4.5254  -4.2135   1.3835   1.5078   1.5559   1.6552   1.6904   1.7797
     1.9115   1.9749   2.0744   2.0753   2.8047   3.4532   4.7870   5.6203
     6.2280   6.7868

          k =-0.0000-0.5832 0.2035 (  4202 PWs)   bands (ev):

  -117.2051-117.1550 -71.3689 -71.3688 -71.3631 -71.3177 -71.3170 -71.3169
    -4.4696  -4.2604   1.3655   1.4609   1.5396   1.6568   1.6792   1.7604
     1.9103   1.9661   2.0854   2.1170   2.7343   3.1439   5.4593   5.8417
     6.3839   6.5149

          k =-0.0000-0.5832-0.3052 (  4184 PWs)   bands (ev):

  -117.2051-117.1550 -71.3689 -71.3688 -71.3631 -71.3177 -71.3170 -71.3169
    -4.4274  -4.2982   1.3602   1.4150   1.5675   1.6283   1.7126   1.7246
     1.9100   1.9625   2.0946   2.1231   2.8352   2.9002   6.0784   6.1108
     6.1358   6.2217

          k = 0.1684 0.2916 0.0000 (  4195 PWs)   bands (ev):

  -117.2051-117.1550 -71.3688 -71.3688 -71.3631 -71.3177 -71.3169 -71.3169
    -4.9847  -4.2888   1.4063   1.4313   1.4790   1.5589   1.6281   1.7991
     1.8387   1.8504   1.9577   2.2030   3.0042   4.7104   5.0664   5.7789
     6.9258   6.9923

          k = 0.1684 0.2916 0.1017 (  4175 PWs)   bands (ev):

  -117.2051-117.1550 -71.3688 -71.3688 -71.3631 -71.3177 -71.3169 -71.3169
    -4.9434  -4.3374   1.3963   1.4340   1.4827   1.5519   1.6180   1.7411
     1.8254   1.8706   1.9538   2.0928   3.2748   4.8622   4.9639   5.7806
     6.8213   6.9857

          k = 0.1684 0.2916 0.2035 (  4184 PWs)   bands (ev):

  -117.2051-117.1550 -71.3688 -71.3688 -71.3631 -71.3177 -71.3169 -71.3169
    -4.8303  -4.4652   1.3805   1.4283   1.4945   1.5335   1.5878   1.6125
     1.8619   1.8827   1.9440   1.9938   3.7376   4.6048   5.3818   5.9139
     6.5561   6.7334

          k = 0.1684 0.2916-0.3052 (  4200 PWs)   bands (ev):

  -117.2051-117.1550 -71.3688 -71.3688 -71.3631 -71.3177 -71.3169 -71.3169
    -4.7157  -4.5871   1.3850   1.4010   1.5063   1.5215   1.5532   1.5859
     1.8840   1.8984   1.9388   1.9488   4.1715   4.1959   6.0218   6.0421
     6.2429   6.3187

          k = 0.1684 0.4860 0.0000 (  4196 PWs)   bands (ev):

  -117.2051-117.1550 -71.3689 -71.3688 -71.3631 -71.3177 -71.3170 -71.3169
    -4.5617  -4.1894   1.4151   1.5126   1.6075   1.6789   1.7279   1.7660
     1.8517   1.8848   1.9970   2.2737   2.9984   3.8747   4.5073   4.9644
     6.1704   6.3162

          k = 0.1684 0.4860 0.1017 (  4206 PWs)   bands (ev):

  -117.2051-117.1550 -71.3689 -71.3688 -71.3631 -71.3177 -71.3170 -71.3169
    -4.5383  -4.2089   1.4216   1.5084   1.5776   1.6679   1.7079   1.7407
     1.8791   1.8875   2.0013   2.2486   2.9563   3.7469   4.6952   5.1395
     6.1472   6.3627

          k = 0.1684 0.4860 0.2035 (  4198 PWs)   bands (ev):

  -117.2051-117.1550 -71.3689 -71.3688 -71.3631 -71.3177 -71.3170 -71.3169
    -4.4788  -4.2607   1.4263   1.4866   1.5431   1.6420   1.6733   1.7128
     1.8891   1.9080   2.0263   2.1706   2.9929   3.4585   5.0347   5.6649
     5.8476   6.5160

          k = 0.1684 0.4860-0.3052 (  4182 PWs)   bands (ev):

  -117.2051-117.1550 -71.3689 -71.3688 -71.3631 -71.3177 -71.3170 -71.3169
    -4.4324  -4.3033   1.4188   1.4652   1.5598   1.6110   1.6646   1.7003
     1.8862   1.9197   2.0763   2.0930   3.1495   3.2074   5.3733   5.4690
     6.2553   6.3000

          k = 0.3367 0.5832 0.0000 (  4221 PWs)   bands (ev):

  -117.2051-117.1550 -71.3689 -71.3688 -71.3631 -71.3177 -71.3170 -71.3169
    -4.3501  -4.2218   1.4055   1.6086   1.6238   1.7301   1.8034   1.8233
     1.8458   1.8955   2.1284   2.1331   3.3958   3.4483   3.8873   5.4160
     5.4551   5.6487

          k = 0.3367 0.5832 0.1017 (  4224 PWs)   bands (ev):

  -117.2051-117.1550 -71.3689 -71.3688 -71.3631 -71.3177 -71.3170 -71.3169
    -4.3464  -4.2178   1.4225   1.5834   1.6048   1.7093   1.7983   1.8060
     1.8372   1.8896   2.1569   2.1596   3.2652   3.3175   3.9930   5.5017
     5.6637   5.7038

          k = 0.3367 0.5832 0.2035 (  4209 PWs)   bands (ev):

  -117.2051-117.1550 -71.3689 -71.3688 -71.3631 -71.3177 -71.3170 -71.3169
    -4.3389  -4.2098   1.4713   1.5332   1.5629   1.6453   1.7823   1.7910
     1.8256   1.8830   2.2045   2.2200   3.0527   3.1085   4.2803   5.1373
     6.1303   6.1768

          k = 0.3367 0.5832-0.3052 (  4188 PWs)   bands (ev):

  -117.2051-117.1550 -71.3689 -71.3688 -71.3631 -71.3177 -71.3170 -71.3169
    -4.3352  -4.2058   1.5083   1.5256   1.5403   1.5812   1.7740   1.7882
     1.8222   1.8809   2.2297   2.2518   2.9600   3.0192   4.6364   4.7453
     6.3633   6.4149

          k =-0.0000-0.1944 0.1017 (  4181 PWs)   bands (ev):

  -117.2051-117.1550 -71.3688 -71.3688 -71.3631 -71.3177 -71.3169 -71.3168
    -5.2600  -4.5057   1.3551   1.4181   1.4291   1.4937   1.5333   1.7427
     1.8368   1.8529   1.9425   2.0003   3.0930   5.7484   6.2325   6.5764
     7.3017   7.4953

          k =-0.0000-0.1944 0.2035 (  4186 PWs)   bands (ev):

  -117.2051-117.1550 -71.3688 -71.3688 -71.3631 -71.3177 -71.3169 -71.3168
    -5.1220  -4.6758   1.3460   1.4274   1.4387   1.4574   1.5177   1.5617
     1.8612   1.8663   1.9316   1.9434   3.8882   5.5760   6.0271   6.7519
     6.8947   7.2851

          k =-0.0000-0.3888 0.1017 (  4192 PWs)   bands (ev):

  -117.2051-117.1550 -71.3689 -71.3688 -71.3631 -71.3177 -71.3169 -71.3169
    -4.8195  -4.2861   1.3575   1.4847   1.4851   1.6216   1.6388   1.7331
     1.8399   1.8795   1.9607   2.1378   3.1727   4.3058   4.7216   5.9156
     6.7497   7.0137

          k =-0.0000-0.3888 0.2035 (  4177 PWs)   bands (ev):

  -117.2051-117.1550 -71.3689 -71.3688 -71.3631 -71.3177 -71.3169 -71.3169
    -4.7194  -4.3937   1.3412   1.4543   1.5074   1.5989   1.6131   1.6516
     1.8769   1.8851   1.9499   2.0255   3.4274   4.1026   5.2266   6.1235
     6.5840   6.7578

          k =-0.1684-0.4860 0.1017 (  4206 PWs)   bands (ev):

  -117.2051-117.1550 -71.3689 -71.3688 -71.3631 -71.3177 -71.3170 -71.3169
    -4.5383  -4.2089   1.4171   1.5023   1.5939   1.6704   1.7136   1.7431
     1.8505   1.8990   2.0010   2.2470   2.9565   3.7532   4.6930   5.1337
     6.1623   6.3516

          k =-0.1684-0.4860 0.2035 (  4198 PWs)   bands (ev):

  -117.2051-117.1550 -71.3689 -71.3688 -71.3631 -71.3177 -71.3170 -71.3169
    -4.4788  -4.2607   1.4147   1.4957   1.5506   1.6441   1.6825   1.7053
     1.8738   1.9144   2.0247   2.1700   2.9936   3.4617   5.0371   5.6332
     5.8804   6.5109

     highest occupied level (ev):     7.8117

!    total energy              =    -841.79869192 Ry
     estimated scf accuracy    <          1.7E-09 Ry

     The total energy is the sum of the following terms:
     one-electron contribution =    -672.22077934 Ry
     hartree contribution      =     343.84662073 Ry
     xc contribution           =     -82.04282168 Ry
     ewald contribution        =    -431.38171164 Ry

     convergence has been achieved in  11 iterations

     Forces acting on atoms (cartesian axes, Ry/au):

     atom    1 type  1   force =    -0.00000000   -0.00000000   -0.00345339
     atom    2 type  2   force =    -0.00000000   -0.00000000   -0.00035593
     atom    3 type  1   force =     0.00000000    0.00000000    0.00765704
     atom    4 type  2   force =     0.00000000    0.00000000   -0.00384771
     The non-local contrib.  to forces
     atom    1 type  1   force =    -0.00000000   -0.00000000    0.02701487
     atom    2 type  2   force =     0.00000000    0.00000000    0.00300440
     atom    3 type  1   force =    -0.00000000   -0.00000000    0.01826432
     atom    4 type  2   force =    -0.00000000   -0.00000000    0.00333606
     The ionic contribution  to forces
     atom    1 type  1   force =    -0.00000000   -0.00000001   -0.61483350
     atom    2 type  2   force =    -0.00000000   -0.00000001   -0.11435866
     atom    3 type  1   force =    -0.00000000    0.00000001    1.57668092
     atom    4 type  2   force =     0.00000000    0.00000001   -0.84748876
     The local contribution  to forces
     atom    1 type  1   force =     0.00000000   -0.00000000    0.58440223
     atom    2 type  2   force =     0.00000000   -0.00000000    0.11105151
     atom    3 type  1   force =     0.00000000    0.00000047   -1.58722936
     atom    4 type  2   force =    -0.00000000   -0.00000001    0.84034648
     The core correction contribution to forces
     atom    1 type  1   force =     0.00000000    0.00000000    0.00000000
     atom    2 type  2   force =     0.00000000    0.00000000    0.00000000
     atom    3 type  1   force =     0.00000000    0.00000000    0.00000000
     atom    4 type  2   force =     0.00000000    0.00000000    0.00000000
     The Hubbard contrib.    to forces
     atom    1 type  1   force =     0.00000000    0.00000000    0.00000000
     atom    2 type  2   force =     0.00000000    0.00000000    0.00000000
     atom    3 type  1   force =     0.00000000    0.00000000    0.00000000
     atom    4 type  2   force =     0.00000000    0.00000000    0.00000000
     The SCF correction term to forces
     atom    1 type  1   force =    -0.00000000    0.00000000    0.00001182
     atom    2 type  2   force =     0.00000000    0.00000000   -0.00000436
     atom    3 type  1   force =     0.00000000    0.00000000   -0.00001002
     atom    4 type  2   force =     0.00000000   -0.00000000    0.00000733

     Total force =     0.009246     Total SCF correction =     0.000018


     Computing stress (Cartesian axis) and pressure

          total   stress  (Ry/bohr**3)                   (kbar)     P=        9.28
   0.00010253   0.00000000   0.00000000           15.08        0.00        0.00
   0.00000000   0.00010253   0.00000000            0.00       15.08        0.00
  -0.00000000  -0.00000000  -0.00001580           -0.00       -0.00       -2.32

     Energy error            =      7.1E-04 Ry
     Gradient error          =      7.7E-03 Ry/Bohr
     Cell gradient error     =      1.5E+01 kbar

     number of scf cycles    =  16
     number of bfgs steps    =  15

     enthalpy           old  =    -841.7979863982 Ry
     enthalpy           new  =    -841.7986919199 Ry

     CASE: enthalpy          _new < enthalpy          _old

     new trust radius        =       0.0195857155 bohr
     new conv_thr            =       0.0000000071 Ry

     new unit-cell volume =    525.27290 a.u.^3 (    77.83741 Ang^3 )
     density =      4.15746 g/cm^3

CELL_PARAMETERS (alat=  7.21875328)
   0.994159981  -0.000000000   0.000000000
  -0.497079991   0.860967799  -0.000000000
   0.000000000  -0.000000000   1.631380313

ATOMIC_POSITIONS (alat)
Zn           -0.0000000000        0.0000000000       -0.2772331256
S             0.0000000000        0.0000000000        0.3308323496
Zn            0.0000000000        0.5739785325        0.5353680080
S             0.0000000000        0.5739785325        1.1479391250



     Writing config-only to output data dir /home/paolo/project_labqsm/ZnS_wurtzite/SCRATCH/zns_w.save/
     NEW-OLD atomic charge density approx. for the potential
     extrapolated charge   52.22117, renormalised to   52.00000

     total cpu time spent up to now is     1783.7 secs

     Self-consistent Calculation

     iteration #  1     ecut=    60.00 Ry     beta= 0.70
     Davidson diagonalization with overlap
     ethr =  1.00E-06,  avg # of iterations =  5.8

     total cpu time spent up to now is     1795.6 secs

     total energy              =    -841.77707153 Ry
     estimated scf accuracy    <       0.01538601 Ry

     iteration #  2     ecut=    60.00 Ry     beta= 0.70
     Davidson diagonalization with overlap
     ethr =  2.96E-05,  avg # of iterations =  3.0

     total cpu time spent up to now is     1803.3 secs

     total energy              =    -841.79779904 Ry
     estimated scf accuracy    <       0.04438394 Ry

     iteration #  3     ecut=    60.00 Ry     beta= 0.70
     Davidson diagonalization with overlap
     ethr =  2.96E-05,  avg # of iterations =  2.0

     total cpu time spent up to now is     1809.0 secs

     total energy              =    -841.79928669 Ry
     estimated scf accuracy    <       0.00752943 Ry

     iteration #  4     ecut=    60.00 Ry     beta= 0.70
     Davidson diagonalization with overlap
     ethr =  1.45E-05,  avg # of iterations =  2.0

     total cpu time spent up to now is     1814.0 secs

     total energy              =    -841.79880178 Ry
     estimated scf accuracy    <       0.00223034 Ry

     iteration #  5     ecut=    60.00 Ry     beta= 0.70
     Davidson diagonalization with overlap
     ethr =  4.29E-06,  avg # of iterations =  2.0

     total cpu time spent up to now is     1819.4 secs

     total energy              =    -841.79910000 Ry
     estimated scf accuracy    <       0.00017274 Ry

     iteration #  6     ecut=    60.00 Ry     beta= 0.70
     Davidson diagonalization with overlap
     ethr =  3.32E-07,  avg # of iterations =  2.0

     total cpu time spent up to now is     1824.5 secs

     total energy              =    -841.79911124 Ry
     estimated scf accuracy    <       0.00006458 Ry

     iteration #  7     ecut=    60.00 Ry     beta= 0.70
     Davidson diagonalization with overlap
     ethr =  1.24E-07,  avg # of iterations =  1.0

     total cpu time spent up to now is     1828.7 secs

     total energy              =    -841.79908398 Ry
     estimated scf accuracy    <       0.00005059 Ry

     iteration #  8     ecut=    60.00 Ry     beta= 0.70
     Davidson diagonalization with overlap
     ethr =  9.73E-08,  avg # of iterations =  2.0

     total cpu time spent up to now is     1834.4 secs

     total energy              =    -841.79909546 Ry
     estimated scf accuracy    <       0.00000020 Ry

     iteration #  9     ecut=    60.00 Ry     beta= 0.70
     Davidson diagonalization with overlap
     ethr =  3.89E-10,  avg # of iterations =  4.8

     total cpu time spent up to now is     1843.6 secs

     total energy              =    -841.79909596 Ry
     estimated scf accuracy    <       0.00000034 Ry

     iteration # 10     ecut=    60.00 Ry     beta= 0.70
     Davidson diagonalization with overlap
     ethr =  3.89E-10,  avg # of iterations =  1.0

     total cpu time spent up to now is     1847.9 secs

     total energy              =    -841.79909585 Ry
     estimated scf accuracy    <       0.00000036 Ry

     iteration # 11     ecut=    60.00 Ry     beta= 0.70
     Davidson diagonalization with overlap
     ethr =  3.89E-10,  avg # of iterations =  2.0

     total cpu time spent up to now is     1853.2 secs

     total energy              =    -841.79909584 Ry
     estimated scf accuracy    <       0.00000012 Ry

     iteration # 12     ecut=    60.00 Ry     beta= 0.70
     Davidson diagonalization with overlap
     ethr =  2.38E-10,  avg # of iterations =  2.0

     total cpu time spent up to now is     1857.9 secs

     total energy              =    -841.79909584 Ry
     estimated scf accuracy    <       0.00000003 Ry

     iteration # 13     ecut=    60.00 Ry     beta= 0.70
     Davidson diagonalization with overlap
     ethr =  6.45E-11,  avg # of iterations =  1.0

     total cpu time spent up to now is     1862.2 secs

     total energy              =    -841.79909584 Ry
     estimated scf accuracy    <       0.00000003 Ry

     iteration # 14     ecut=    60.00 Ry     beta= 0.70
     Davidson diagonalization with overlap
     ethr =  6.09E-11,  avg # of iterations =  1.0

     total cpu time spent up to now is     1866.6 secs

     total energy              =    -841.79909584 Ry
     estimated scf accuracy    <       0.00000002 Ry

     iteration # 15     ecut=    60.00 Ry     beta= 0.70
     Davidson diagonalization with overlap
     ethr =  4.13E-11,  avg # of iterations =  1.0

     total cpu time spent up to now is     1870.9 secs

     total energy              =    -841.79909584 Ry
     estimated scf accuracy    <       0.00000002 Ry

     iteration # 16     ecut=    60.00 Ry     beta= 0.70
