
     Program PWSCF v.7.2 starts on  9Jun2024 at 11:36:34 

     This program is part of the open-source Quantum ESPRESSO suite
     for quantum simulation of materials; please cite
         "P. Giannozzi et al., J. Phys.:Condens. Matter 21 395502 (2009);
         "P. Giannozzi et al., J. Phys.:Condens. Matter 29 465901 (2017);
         "P. Giannozzi et al., J. Chem. Phys. 152 154105 (2020);
          URL http://www.quantum-espresso.org", 
     in publications or presentations arising from this work. More details at
     http://www.quantum-espresso.org/quote

     Serial version
     8719 MiB available memory on the printing compute node when the environment starts

     Waiting for input...
     Reading input from standard input

     Current dimensions of program PWSCF are:
     Max number of different atomic species (ntypx) = 10
     Max number of k-points (npk) =  40000
     Max angular momentum in pseudopotentials (lmaxx) =  4


     G-vector sticks info
     --------------------
     sticks:   dense  smooth     PW     G-vecs:    dense   smooth      PW
     Sum         955     955    295                19603    19603    3215

     Using Slab Decomposition



     bravais-lattice index     =            2
     lattice parameter (alat)  =      10.7763  a.u.
     unit-cell volume          =     312.8555 (a.u.)^3
     number of atoms/cell      =            2
     number of atomic types    =            1
     number of electrons       =         8.00
     number of Kohn-Sham states=            4
     kinetic-energy cutoff     =      60.0000  Ry
     charge density cutoff     =     240.0000  Ry
     scf convergence threshold =      1.0E-08
     mixing beta               =       0.7000
     number of iterations used =            8  plain     mixing
     energy convergence thresh.=      1.0E-05
     force convergence thresh. =      1.0E-04
     press convergence thresh. =      5.0E-01
     Exchange-correlation= PBE
                           (   1   4   3   4   0   0   0)
     nstep                     =           50


     celldm(1)=  10.776257  celldm(2)=   0.000000  celldm(3)=   0.000000
     celldm(4)=   0.000000  celldm(5)=   0.000000  celldm(6)=   0.000000

     crystal axes: (cart. coord. in units of alat)
               a(1) = (  -0.500000   0.000000   0.500000 )  
               a(2) = (   0.000000   0.500000   0.500000 )  
               a(3) = (  -0.500000   0.500000   0.000000 )  

     reciprocal axes: (cart. coord. in units 2 pi/alat)
               b(1) = ( -1.000000 -1.000000  1.000000 )  
               b(2) = (  1.000000  1.000000  1.000000 )  
               b(3) = ( -1.000000  1.000000 -1.000000 )  


     PseudoPot. # 1 for Si read from file:
     /home/paolo/project_labqsm/pseudopotentials/Si_ONCV_PBE-1.2.upf
     MD5 check sum: 7f029a58b69e3aa87b46a36c608bf45e
     Pseudo is Norm-conserving, Zval =  4.0
     Generated using ONCVPSP code by D. R. Hamann
     Using radial grid of  602 points,  4 beta functions with: 
                l(1) =   0
                l(2) =   0
                l(3) =   1
                l(4) =   1

     atomic species   valence    mass     pseudopotential
        Si             4.00    28.08500     Si( 1.00)

     48 Sym. Ops., with inversion, found (24 have fractional translation)



   Cartesian axes

     site n.     atom                  positions (alat units)
         1           Si  tau(   1) = (   0.0000000   0.0000000   0.0000000  )
         2           Si  tau(   2) = (   0.2500000   0.2500000   0.2500000  )

     number of k points=    29
                       cart. coord. in units 2pi/alat
        k(    1) = (   0.0000000   0.0000000   0.0000000), wk =   0.0039062
        k(    2) = (  -0.1250000   0.1250000  -0.1250000), wk =   0.0312500
        k(    3) = (  -0.2500000   0.2500000  -0.2500000), wk =   0.0312500
        k(    4) = (  -0.3750000   0.3750000  -0.3750000), wk =   0.0312500
        k(    5) = (   0.5000000  -0.5000000   0.5000000), wk =   0.0156250
        k(    6) = (   0.0000000   0.2500000   0.0000000), wk =   0.0234375
        k(    7) = (  -0.1250000   0.3750000  -0.1250000), wk =   0.0937500
        k(    8) = (  -0.2500000   0.5000000  -0.2500000), wk =   0.0937500
        k(    9) = (   0.6250000  -0.3750000   0.6250000), wk =   0.0937500
        k(   10) = (   0.5000000  -0.2500000   0.5000000), wk =   0.0937500
        k(   11) = (   0.3750000  -0.1250000   0.3750000), wk =   0.0937500
        k(   12) = (   0.2500000   0.0000000   0.2500000), wk =   0.0468750
        k(   13) = (   0.0000000   0.5000000   0.0000000), wk =   0.0234375
        k(   14) = (  -0.1250000   0.6250000  -0.1250000), wk =   0.0937500
        k(   15) = (   0.7500000  -0.2500000   0.7500000), wk =   0.0937500
        k(   16) = (   0.6250000  -0.1250000   0.6250000), wk =   0.0937500
        k(   17) = (   0.5000000   0.0000000   0.5000000), wk =   0.0468750
        k(   18) = (   0.0000000   0.7500000   0.0000000), wk =   0.0234375
        k(   19) = (   0.8750000  -0.1250000   0.8750000), wk =   0.0937500
        k(   20) = (   0.7500000   0.0000000   0.7500000), wk =   0.0468750
        k(   21) = (   0.0000000  -1.0000000   0.0000000), wk =   0.0117188
        k(   22) = (  -0.2500000   0.5000000   0.0000000), wk =   0.0937500
        k(   23) = (   0.6250000  -0.3750000   0.8750000), wk =   0.1875000
        k(   24) = (   0.5000000  -0.2500000   0.7500000), wk =   0.0937500
        k(   25) = (   0.7500000  -0.2500000   1.0000000), wk =   0.0937500
        k(   26) = (   0.6250000  -0.1250000   0.8750000), wk =   0.1875000
        k(   27) = (   0.5000000   0.0000000   0.7500000), wk =   0.0937500
        k(   28) = (  -0.2500000  -1.0000000   0.0000000), wk =   0.0468750
        k(   29) = (  -0.5000000  -1.0000000   0.0000000), wk =   0.0234375

     Dense  grid:    19603 G-vectors     FFT dimensions: (  40,  40,  40)

     Estimated max dynamical RAM per process >      18.95 MB

     Initial potential from superposition of free atoms

     starting charge       7.9075, renormalised to       8.0000
     Starting wfcs are random

     total cpu time spent up to now is        0.5 secs

     Self-consistent Calculation

     iteration #  1     ecut=    60.00 Ry     beta= 0.70
     Davidson diagonalization with overlap
     ethr =  1.00E-02,  avg # of iterations =  8.3

     Threshold (ethr) on eigenvalues was too large:
     Diagonalizing with lowered threshold

     Davidson diagonalization with overlap
     ethr =  4.32E-04,  avg # of iterations =  4.2

     total cpu time spent up to now is        2.2 secs

     total energy              =     -15.75355446 Ry
     estimated scf accuracy    <       0.04071332 Ry

     iteration #  2     ecut=    60.00 Ry     beta= 0.70
     Davidson diagonalization with overlap
     ethr =  5.09E-04,  avg # of iterations =  1.0

     total cpu time spent up to now is        2.6 secs

     total energy              =     -15.75490697 Ry
     estimated scf accuracy    <       0.00234997 Ry

     iteration #  3     ecut=    60.00 Ry     beta= 0.70
     Davidson diagonalization with overlap
     ethr =  2.94E-05,  avg # of iterations =  2.7

     total cpu time spent up to now is        3.1 secs

     total energy              =     -15.75536715 Ry
     estimated scf accuracy    <       0.00002541 Ry

     iteration #  4     ecut=    60.00 Ry     beta= 0.70
     Davidson diagonalization with overlap
     ethr =  3.18E-07,  avg # of iterations =  6.0

     total cpu time spent up to now is        3.9 secs

     total energy              =     -15.75541772 Ry
     estimated scf accuracy    <       0.00000026 Ry

     iteration #  5     ecut=    60.00 Ry     beta= 0.70
     Davidson diagonalization with overlap
     ethr =  3.24E-09,  avg # of iterations =  4.1

     total cpu time spent up to now is        4.6 secs

     total energy              =     -15.75541805 Ry
     estimated scf accuracy    <       0.00000004 Ry

     iteration #  6     ecut=    60.00 Ry     beta= 0.70
     Davidson diagonalization with overlap
     ethr =  4.47E-10,  avg # of iterations =  2.9

     total cpu time spent up to now is        5.1 secs

     End of self-consistent calculation

          k = 0.0000 0.0000 0.0000 (  2445 PWs)   bands (ev):

    -6.2232   4.7904   4.7904   4.7904

          k =-0.1250 0.1250-0.1250 (  2475 PWs)   bands (ev):

    -6.0439   3.1898   4.5430   4.5430

          k =-0.2500 0.2500-0.2500 (  2463 PWs)   bands (ev):

    -5.5239   1.0836   4.1257   4.1257

          k =-0.3750 0.3750-0.3750 (  2458 PWs)   bands (ev):

    -4.7584  -0.6946   3.8282   3.8282

          k = 0.5000-0.5000 0.5000 (  2452 PWs)   bands (ev):

    -4.2395  -1.5581   3.7252   3.7252

          k = 0.0000 0.2500 0.0000 (  2469 PWs)   bands (ev):

    -5.9833   3.2774   4.1116   4.1116

          k =-0.1250 0.3750-0.1250 (  2471 PWs)   bands (ev):

    -5.5729   1.6300   3.6619   3.6625

          k =-0.2500 0.5000-0.2500 (  2469 PWs)   bands (ev):

    -4.8680  -0.1654   3.1219   3.4158

          k = 0.6250-0.3750 0.6250 (  2457 PWs)   bands (ev):

    -4.1526  -1.4099   2.7315   3.4250

          k = 0.5000-0.2500 0.5000 (  2445 PWs)   bands (ev):

    -4.3509  -1.1006   2.5922   3.6751

          k = 0.3750-0.1250 0.3750 (  2463 PWs)   bands (ev):

    -5.1320   0.4059   2.7659   4.0994

          k = 0.2500 0.0000 0.2500 (  2459 PWs)   bands (ev):

    -5.7493   2.1151   3.4127   4.5191

          k = 0.0000 0.5000 0.0000 (  2477 PWs)   bands (ev):

    -5.2730   1.2215   3.1660   3.1660

          k =-0.1250 0.6250-0.1250 (  2454 PWs)   bands (ev):

    -4.6540  -0.0234   2.4826   2.8820

          k = 0.7500-0.2500 0.7500 (  2454 PWs)   bands (ev):

    -3.8673  -1.2454   1.7234   2.8777

          k = 0.6250-0.1250 0.6250 (  2447 PWs)   bands (ev):

    -3.7077  -1.4505   1.3382   3.1493

          k = 0.5000 0.0000 0.5000 (  2437 PWs)   bands (ev):

    -4.4465  -0.4604   1.5764   3.6279

          k = 0.0000 0.7500 0.0000 (  2450 PWs)   bands (ev):

    -4.1227  -0.7712   2.5322   2.5322

          k = 0.8750-0.1250 0.8750 (  2448 PWs)   bands (ev):

    -3.3455  -1.7306   1.8521   2.4625

          k = 0.7500 0.0000 0.7500 (  2440 PWs)   bands (ev):

    -3.0040  -2.0540   1.1382   2.6850

          k = 0.0000-1.0000 0.0000 (  2450 PWs)   bands (ev):

    -2.5910  -2.5910   2.3140   2.3140

          k =-0.2500 0.5000 0.0000 (  2460 PWs)   bands (ev):

    -5.0599   0.5960   2.4686   3.5401

          k = 0.6250-0.3750 0.8750 (  2449 PWs)   bands (ev):

    -4.2970  -0.7436   1.8941   3.1277

          k = 0.5000-0.2500 0.7500 (  2448 PWs)   bands (ev):

    -3.7611  -1.5240   1.7513   2.9401

          k = 0.7500-0.2500 1.0000 (  2435 PWs)   bands (ev):

    -3.9587  -0.9639   1.9067   2.4346

          k = 0.6250-0.1250 0.8750 (  2454 PWs)   bands (ev):

    -3.2219  -1.8039   1.3249   2.2653

          k = 0.5000 0.0000 0.7500 (  2462 PWs)   bands (ev):

    -3.5266  -1.4765   1.1865   2.5812

          k =-0.2500-1.0000 0.0000 (  2444 PWs)   bands (ev):

    -2.5388  -2.5388   1.8705   1.8705

          k =-0.5000-1.0000 0.0000 (  2468 PWs)   bands (ev):

    -2.4832  -2.4832   1.5233   1.5233

     highest occupied level (ev):     4.7904

!    total energy              =     -15.75541806 Ry
     estimated scf accuracy    <          1.0E-09 Ry

     The total energy is the sum of the following terms:
     one-electron contribution =       3.67577749 Ry
     hartree contribution      =       1.23350498 Ry
     xc contribution           =      -4.66865121 Ry
     ewald contribution        =     -15.99604932 Ry

     convergence has been achieved in   6 iterations

     Forces acting on atoms (cartesian axes, Ry/au):

     atom    1 type  1   force =     0.00000000   -0.00000000    0.00000000
     atom    2 type  1   force =     0.00000000    0.00000000   -0.00000000
     The non-local contrib.  to forces
     atom    1 type  1   force =     0.00000000    0.00000000   -0.00000000
     atom    2 type  1   force =     0.00000000    0.00000000    0.00000000
     The ionic contribution  to forces
     atom    1 type  1   force =    -0.00000000   -0.00000000   -0.00000000
     atom    2 type  1   force =     0.00000000    0.00000000    0.00000000
     The local contribution  to forces
     atom    1 type  1   force =     0.00000000    0.00000000   -0.00000000
     atom    2 type  1   force =     0.00000000   -0.00000000   -0.00000000
     The core correction contribution to forces
     atom    1 type  1   force =     0.00000000    0.00000000    0.00000000
     atom    2 type  1   force =     0.00000000    0.00000000    0.00000000
     The Hubbard contrib.    to forces
     atom    1 type  1   force =     0.00000000    0.00000000    0.00000000
     atom    2 type  1   force =     0.00000000    0.00000000    0.00000000
     The SCF correction term to forces
     atom    1 type  1   force =    -0.00000000    0.00000000    0.00000000
     atom    2 type  1   force =    -0.00000000    0.00000000    0.00000000

     Total force =     0.000000     Total SCF correction =     0.000000


     Computing stress (Cartesian axis) and pressure

          total   stress  (Ry/bohr**3)                   (kbar)     P=      -81.30
  -0.00055264  -0.00000000   0.00000000          -81.30       -0.00        0.00
   0.00000000  -0.00055264   0.00000000            0.00      -81.30        0.00
  -0.00000000   0.00000000  -0.00055264           -0.00        0.00      -81.30


     BFGS Geometry Optimization
     Energy error            =      0.0E+00 Ry
     Gradient error          =      2.1E-33 Ry/Bohr
     Cell gradient error     =      8.1E+01 kbar

     number of scf cycles    =   1
     number of bfgs steps    =   0

     enthalpy           new  =     -15.7554180556 Ry

     new trust radius        =       0.0488747184 bohr
     new conv_thr            =       0.0000000100 Ry

     new unit-cell volume =    300.06661 a.u.^3 (    44.46528 Ang^3 )
     density =      2.09765 g/cm^3

CELL_PARAMETERS (alat= 10.77625694)
  -0.493091999   0.000000000   0.493091999
   0.000000000   0.493091999   0.493091999
  -0.493091999   0.493091999   0.000000000

ATOMIC_POSITIONS (alat)
Si            0.0000000000       -0.0000000000        0.0000000000
Si            0.2465459997        0.2465459997        0.2465459997



     Writing config-only to output data dir /home/paolo/project_labqsm/Silicon/SCRATCH/silicon.save/
     NEW-OLD atomic charge density approx. for the potential
     extrapolated charge    7.66298, renormalised to    8.00000

     total cpu time spent up to now is        6.3 secs

     Self-consistent Calculation

     iteration #  1     ecut=    60.00 Ry     beta= 0.70
     Davidson diagonalization with overlap
     ethr =  1.00E-06,  avg # of iterations =  6.6

     total cpu time spent up to now is        7.2 secs

     total energy              =     -15.76018528 Ry
     estimated scf accuracy    <       0.00085611 Ry

     iteration #  2     ecut=    60.00 Ry     beta= 0.70
     Davidson diagonalization with overlap
     ethr =  1.07E-05,  avg # of iterations =  3.0

     total cpu time spent up to now is        7.9 secs

     total energy              =     -15.76156008 Ry
     estimated scf accuracy    <       0.00047011 Ry

     iteration #  3     ecut=    60.00 Ry     beta= 0.70
     Davidson diagonalization with overlap
     ethr =  5.88E-06,  avg # of iterations =  1.0

     total cpu time spent up to now is        8.2 secs

     total energy              =     -15.76151717 Ry
     estimated scf accuracy    <       0.00013223 Ry

     iteration #  4     ecut=    60.00 Ry     beta= 0.70
     Davidson diagonalization with overlap
     ethr =  1.65E-06,  avg # of iterations =  2.0

     total cpu time spent up to now is        8.7 secs

     total energy              =     -15.76153259 Ry
     estimated scf accuracy    <       0.00000821 Ry

     iteration #  5     ecut=    60.00 Ry     beta= 0.70
     Davidson diagonalization with overlap
     ethr =  1.03E-07,  avg # of iterations =  1.4

     total cpu time spent up to now is        9.2 secs

     total energy              =     -15.76153195 Ry
     estimated scf accuracy    <       0.00000226 Ry

     iteration #  6     ecut=    60.00 Ry     beta= 0.70
     Davidson diagonalization with overlap
     ethr =  2.83E-08,  avg # of iterations =  2.2

     total cpu time spent up to now is        9.7 secs

     total energy              =     -15.76153233 Ry
     estimated scf accuracy    <       0.00000016 Ry

     iteration #  7     ecut=    60.00 Ry     beta= 0.70
     Davidson diagonalization with overlap
     ethr =  2.04E-09,  avg # of iterations =  2.3

     total cpu time spent up to now is       10.2 secs

     total energy              =     -15.76153234 Ry
     estimated scf accuracy    <       0.00000003 Ry

     iteration #  8     ecut=    60.00 Ry     beta= 0.70
     Davidson diagonalization with overlap
     ethr =  4.15E-10,  avg # of iterations =  1.8

     total cpu time spent up to now is       10.6 secs

     End of self-consistent calculation

          k = 0.0000 0.0000 0.0000 (  2445 PWs)   bands (ev):

    -6.0906   5.1792   5.1792   5.1792

          k =-0.1268 0.1268-0.1268 (  2475 PWs)   bands (ev):

    -5.9045   3.5904   4.9210   4.9210

          k =-0.2535 0.2535-0.2535 (  2463 PWs)   bands (ev):

    -5.3637   1.4212   4.4895   4.4895

          k =-0.3803 0.3803-0.3803 (  2458 PWs)   bands (ev):

    -4.5634  -0.4244   4.1840   4.1840

          k = 0.5070-0.5070 0.5070 (  2452 PWs)   bands (ev):

    -4.0133  -1.3306   4.0785   4.0785

          k = 0.0000 0.2535 0.0000 (  2469 PWs)   bands (ev):

    -5.8417   3.7255   4.4668   4.4668

          k =-0.1268 0.3803-0.1268 (  2471 PWs)   bands (ev):

    -5.4152   2.0118   4.0005   4.0188

          k =-0.2535 0.5070-0.2535 (  2469 PWs)   bands (ev):

    -4.6802   0.1420   3.4647   3.7485

          k = 0.6338-0.3803 0.6338 (  2457 PWs)   bands (ev):

    -3.9260  -1.1622   3.0597   3.7618

          k = 0.5070-0.2535 0.5070 (  2445 PWs)   bands (ev):

    -4.1363  -0.8365   2.9092   4.0241

          k = 0.3803-0.1268 0.3803 (  2463 PWs)   bands (ev):

    -4.9558   0.7377   3.0769   4.4663

          k = 0.2535 0.0000 0.2535 (  2459 PWs)   bands (ev):

    -5.5985   2.5112   3.7347   4.9021

          k = 0.0000 0.5070 0.0000 (  2477 PWs)   bands (ev):

    -5.1042   1.6299   3.4844   3.4844

          k =-0.1268 0.6338-0.1268 (  2454 PWs)   bands (ev):

    -4.4602   0.3362   2.7736   3.1912

          k = 0.7605-0.2535 0.7605 (  2454 PWs)   bands (ev):

    -3.6359  -0.9447   1.9849   3.1889

          k = 0.6338-0.1268 0.6338 (  2447 PWs)   bands (ev):

    -3.4647  -1.1636   1.5797   3.4731

          k = 0.5070 0.0000 0.5070 (  2437 PWs)   bands (ev):

    -4.2409  -0.1285   1.8200   3.9730

          k = 0.0000 0.7605 0.0000 (  2450 PWs)   bands (ev):

    -3.9093  -0.4287   2.8283   2.8283

          k = 0.8873-0.1268 0.8873 (  2448 PWs)   bands (ev):

    -3.0993  -1.4230   2.1081   2.7568

          k = 0.7605 0.0000 0.7605 (  2440 PWs)   bands (ev):

    -2.7327  -1.7657   1.3533   2.9888

          k = 0.0000-1.0140 0.0000 (  2450 PWs)   bands (ev):

    -2.3177  -2.3177   2.6027   2.6027

          k =-0.2535 0.5070 0.0000 (  2460 PWs)   bands (ev):

    -4.8817   0.9655   2.7525   3.8814

          k = 0.6338-0.3803 0.8873 (  2449 PWs)   bands (ev):

    -4.0847  -0.4313   2.1666   3.4459

          k = 0.5070-0.2535 0.7605 (  2448 PWs)   bands (ev):

    -3.5182  -1.2554   2.0267   3.2474

          k = 0.7605-0.2535 1.0140 (  2435 PWs)   bands (ev):

    -3.7360  -0.6289   2.1671   2.7165

          k = 0.6338-0.1268 0.8873 (  2454 PWs)   bands (ev):

    -2.9624  -1.5034   1.5538   2.5386

          k = 0.5070 0.0000 0.7605 (  2462 PWs)   bands (ev):

    -3.2795  -1.1662   1.4078   2.8705

          k =-0.2535-1.0140 0.0000 (  2444 PWs)   bands (ev):

    -2.2590  -2.2590   2.1268   2.1268

          k =-0.5070-1.0140 0.0000 (  2468 PWs)   bands (ev):

    -2.1959  -2.1959   1.7560   1.7560

     highest occupied level (ev):     5.1792

!    total energy              =     -15.76153234 Ry
     estimated scf accuracy    <          4.2E-09 Ry

     The total energy is the sum of the following terms:
     one-electron contribution =       3.97267286 Ry
     hartree contribution      =       1.19517596 Ry
     xc contribution           =      -4.70923427 Ry
     ewald contribution        =     -16.22014689 Ry

     convergence has been achieved in   8 iterations

     Forces acting on atoms (cartesian axes, Ry/au):

     atom    1 type  1   force =     0.00000000    0.00000000    0.00000000
     atom    2 type  1   force =    -0.00000000   -0.00000000   -0.00000000
     The non-local contrib.  to forces
     atom    1 type  1   force =     0.00000000    0.00000000    0.00000000
     atom    2 type  1   force =     0.00000000   -0.00000000    0.00000000
     The ionic contribution  to forces
     atom    1 type  1   force =    -0.00000000   -0.00000000   -0.00000000
     atom    2 type  1   force =     0.00000000    0.00000000    0.00000000
     The local contribution  to forces
     atom    1 type  1   force =    -0.00000000    0.00000000    0.00000000
     atom    2 type  1   force =     0.00000000    0.00000000    0.00000000
     The core correction contribution to forces
     atom    1 type  1   force =     0.00000000    0.00000000    0.00000000
     atom    2 type  1   force =     0.00000000    0.00000000    0.00000000
     The Hubbard contrib.    to forces
     atom    1 type  1   force =     0.00000000    0.00000000    0.00000000
     atom    2 type  1   force =     0.00000000    0.00000000    0.00000000
     The SCF correction term to forces
     atom    1 type  1   force =     0.00000000    0.00000000   -0.00000000
     atom    2 type  1   force =    -0.00000000   -0.00000000    0.00000000

     Total force =     0.000000     Total SCF correction =     0.000000


     Computing stress (Cartesian axis) and pressure

          total   stress  (Ry/bohr**3)                   (kbar)     P=      -58.40
  -0.00039697   0.00000000   0.00000000          -58.40        0.00        0.00
  -0.00000000  -0.00039697  -0.00000000           -0.00      -58.40       -0.00
   0.00000000   0.00000000  -0.00039697            0.00        0.00      -58.40

     Energy error            =      6.1E-03 Ry
     Gradient error          =      4.2E-33 Ry/Bohr
     Cell gradient error     =      5.8E+01 kbar

     number of scf cycles    =   2
     number of bfgs steps    =   1

     enthalpy           old  =     -15.7554180556 Ry
     enthalpy           new  =     -15.7615323378 Ry

     CASE: enthalpy          _new < enthalpy          _old

     new trust radius        =       0.0728038763 bohr
     new conv_thr            =            1.0E-10 Ry

     new unit-cell volume =    281.54426 a.u.^3 (    41.72055 Ang^3 )
     density =      2.23565 g/cm^3

CELL_PARAMETERS (alat= 10.77625694)
  -0.482729999   0.000000000   0.482729999
   0.000000000   0.482729999   0.482729999
  -0.482729999   0.482729999   0.000000000

ATOMIC_POSITIONS (alat)
Si            0.0000000000        0.0000000000        0.0000000000
Si            0.2413649993        0.2413649993        0.2413649993



     Writing config-only to output data dir /home/paolo/project_labqsm/Silicon/SCRATCH/silicon.save/
     NEW-OLD atomic charge density approx. for the potential
     extrapolated charge    7.47977, renormalised to    8.00000

     total cpu time spent up to now is       11.7 secs

     Self-consistent Calculation

     iteration #  1     ecut=    60.00 Ry     beta= 0.70
     Davidson diagonalization with overlap
     ethr =  1.00E-06,  avg # of iterations =  7.4

     total cpu time spent up to now is       12.8 secs

     total energy              =     -15.76310521 Ry
     estimated scf accuracy    <       0.00202749 Ry

     iteration #  2     ecut=    60.00 Ry     beta= 0.70
     Davidson diagonalization with overlap
     ethr =  2.53E-05,  avg # of iterations =  3.0

     total cpu time spent up to now is       13.4 secs

     total energy              =     -15.76625997 Ry
     estimated scf accuracy    <       0.00107405 Ry

     iteration #  3     ecut=    60.00 Ry     beta= 0.70
     Davidson diagonalization with overlap
     ethr =  1.34E-05,  avg # of iterations =  1.0

     total cpu time spent up to now is       13.8 secs

     total energy              =     -15.76616339 Ry
     estimated scf accuracy    <       0.00029939 Ry

     iteration #  4     ecut=    60.00 Ry     beta= 0.70
     Davidson diagonalization with overlap
     ethr =  3.74E-06,  avg # of iterations =  2.0

     total cpu time spent up to now is       14.3 secs

     total energy              =     -15.76619832 Ry
     estimated scf accuracy    <       0.00001843 Ry

     iteration #  5     ecut=    60.00 Ry     beta= 0.70
     Davidson diagonalization with overlap
     ethr =  2.30E-07,  avg # of iterations =  1.4

     total cpu time spent up to now is       14.7 secs

     total energy              =     -15.76619685 Ry
     estimated scf accuracy    <       0.00000488 Ry

     iteration #  6     ecut=    60.00 Ry     beta= 0.70
     Davidson diagonalization with overlap
     ethr =  6.10E-08,  avg # of iterations =  2.3

     total cpu time spent up to now is       15.2 secs

     total energy              =     -15.76619772 Ry
     estimated scf accuracy    <       0.00000043 Ry

     iteration #  7     ecut=    60.00 Ry     beta= 0.70
     Davidson diagonalization with overlap
     ethr =  5.37E-09,  avg # of iterations =  2.0

     total cpu time spent up to now is       15.7 secs

     total energy              =     -15.76619774 Ry
     estimated scf accuracy    <       0.00000008 Ry

     iteration #  8     ecut=    60.00 Ry     beta= 0.70
     Davidson diagonalization with overlap
     ethr =  1.00E-09,  avg # of iterations =  1.9

     total cpu time spent up to now is       16.1 secs

     total energy              =     -15.76619774 Ry
     estimated scf accuracy    <       0.00000001 Ry

     iteration #  9     ecut=    60.00 Ry     beta= 0.70
     Davidson diagonalization with overlap
     ethr =  1.81E-10,  avg # of iterations =  2.0

     total cpu time spent up to now is       16.6 secs

     End of self-consistent calculation

          k = 0.0000 0.0000 0.0000 (  2445 PWs)   bands (ev):

    -5.8785   5.8016   5.8016   5.8016

          k =-0.1295 0.1295-0.1295 (  2475 PWs)   bands (ev):

    -5.6816   4.2132   5.5263   5.5263

          k =-0.2589 0.2589-0.2589 (  2463 PWs)   bands (ev):

    -5.1082   1.9487   5.0729   5.0729

          k =-0.3884 0.3884-0.3884 (  2458 PWs)   bands (ev):

    -4.2524  -0.0014   4.7556   4.7556

          k = 0.5179-0.5179 0.5179 (  2452 PWs)   bands (ev):

    -3.6509  -0.9762   4.6466   4.6466

          k = 0.0000 0.2589 0.0000 (  2469 PWs)   bands (ev):

    -5.6152   4.4241   5.0355   5.0355

          k =-0.1295 0.3884-0.1295 (  2471 PWs)   bands (ev):

    -5.1636   2.6067   4.5432   4.5929

          k =-0.2589 0.5179-0.2589 (  2469 PWs)   bands (ev):

    -4.3810   0.6225   4.0171   4.2824

          k = 0.6474-0.3884 0.6474 (  2457 PWs)   bands (ev):

    -3.5637  -0.7762   3.5885   4.3025

          k = 0.5179-0.2589 0.5179 (  2445 PWs)   bands (ev):

    -3.7940  -0.4240   3.4198   4.5848

          k = 0.3884-0.1295 0.3884 (  2463 PWs)   bands (ev):

    -4.6749   1.2563   3.5775   5.0553

          k = 0.2589 0.0000 0.2589 (  2459 PWs)   bands (ev):

    -5.3576   3.1297   4.2505   5.5166

          k = 0.0000 0.5179 0.0000 (  2477 PWs)   bands (ev):

    -4.8351   2.2741   3.9952   3.9952

          k =-0.1295 0.6474-0.1295 (  2454 PWs)   bands (ev):

    -4.1517   0.9037   3.2416   3.6877

          k = 0.7768-0.2589 0.7768 (  2454 PWs)   bands (ev):

    -3.2671  -0.4720   2.4073   3.6888

          k = 0.6474-0.1295 0.6474 (  2447 PWs)   bands (ev):

    -3.0767  -0.7139   1.9703   3.9931

          k = 0.5179 0.0000 0.5179 (  2437 PWs)   bands (ev):

    -3.9132   0.3947   2.2117   4.5272

          k = 0.0000 0.7768 0.0000 (  2450 PWs)   bands (ev):

    -3.5699   0.1140   3.3042   3.3042

          k = 0.9063-0.1295 0.9063 (  2448 PWs)   bands (ev):

    -2.7079  -0.9345   2.5186   3.2301

          k = 0.7768 0.0000 0.7768 (  2440 PWs)   bands (ev):

    -2.2994  -1.3088   1.6974   3.4771

          k = 0.0000-1.0358 0.0000 (  2450 PWs)   bands (ev):

    -1.8838  -1.8838   3.0670   3.0670

          k =-0.2589 0.5179 0.0000 (  2460 PWs)   bands (ev):

    -4.5977   1.5469   3.2081   4.4297

          k = 0.6474-0.3884 0.9063 (  2449 PWs)   bands (ev):

    -3.7464   0.0585   2.6073   3.9561

          k = 0.5179-0.2589 0.7768 (  2448 PWs)   bands (ev):

    -3.1296  -0.8366   2.4732   3.7396

          k = 0.7768-0.2589 1.0358 (  2435 PWs)   bands (ev):

    -3.3817  -0.0975   2.5855   3.1678

          k = 0.6474-0.1295 0.9063 (  2454 PWs)   bands (ev):

    -2.5484  -1.0272   1.9214   2.9761

          k = 0.5179 0.0000 0.7768 (  2462 PWs)   bands (ev):

    -2.8854  -0.6745   1.7631   3.3339

          k =-0.2589-1.0358 0.0000 (  2444 PWs)   bands (ev):

    -1.8140  -1.8140   2.5376   2.5376

          k =-0.5179-1.0358 0.0000 (  2468 PWs)   bands (ev):

    -1.7379  -1.7379   2.1279   2.1279

     highest occupied level (ev):     5.8016

!    total energy              =     -15.76619774 Ry
     estimated scf accuracy    <          7.7E-11 Ry

     The total energy is the sum of the following terms:
     one-electron contribution =       4.43719695 Ry
     hartree contribution      =       1.13817452 Ry
     xc contribution           =      -4.77325010 Ry
     ewald contribution        =     -16.56831911 Ry

     convergence has been achieved in   9 iterations

     Forces acting on atoms (cartesian axes, Ry/au):

     atom    1 type  1   force =     0.00000000    0.00000000    0.00000000
     atom    2 type  1   force =    -0.00000000   -0.00000000   -0.00000000
     The non-local contrib.  to forces
     atom    1 type  1   force =     0.00000000    0.00000000    0.00000000
     atom    2 type  1   force =    -0.00000000   -0.00000000   -0.00000000
     The ionic contribution  to forces
     atom    1 type  1   force =     0.00000000   -0.00000000   -0.00000000
     atom    2 type  1   force =     0.00000000   -0.00000000    0.00000000
     The local contribution  to forces
     atom    1 type  1   force =    -0.00000000    0.00000000    0.00000000
     atom    2 type  1   force =     0.00000000    0.00000000    0.00000000
     The core correction contribution to forces
     atom    1 type  1   force =     0.00000000    0.00000000    0.00000000
     atom    2 type  1   force =     0.00000000    0.00000000    0.00000000
     The Hubbard contrib.    to forces
     atom    1 type  1   force =     0.00000000    0.00000000    0.00000000
     atom    2 type  1   force =     0.00000000    0.00000000    0.00000000
     The SCF correction term to forces
     atom    1 type  1   force =    -0.00000000   -0.00000000    0.00000000
     atom    2 type  1   force =    -0.00000000    0.00000000   -0.00000000

     Total force =     0.000000     Total SCF correction =     0.000000


     Computing stress (Cartesian axis) and pressure

          total   stress  (Ry/bohr**3)                   (kbar)     P=      -13.01
  -0.00008843  -0.00000000  -0.00000000          -13.01       -0.00       -0.00
  -0.00000000  -0.00008843   0.00000000           -0.00      -13.01        0.00
  -0.00000000   0.00000000  -0.00008843           -0.00        0.00      -13.01

     Energy error            =      4.7E-03 Ry
     Gradient error          =      9.6E-33 Ry/Bohr
     Cell gradient error     =      1.3E+01 kbar

     number of scf cycles    =   3
     number of bfgs steps    =   2

     enthalpy           old  =     -15.7615323378 Ry
     enthalpy           new  =     -15.7661977424 Ry

     CASE: enthalpy          _new < enthalpy          _old

     new trust radius        =       0.0195528488 bohr
     new conv_thr            =            1.0E-10 Ry

     new unit-cell volume =    276.65163 a.u.^3 (    40.99554 Ang^3 )
     density =      2.27519 g/cm^3

CELL_PARAMETERS (alat= 10.77625694)
  -0.479917379   0.000000000   0.479917379
   0.000000000   0.479917379   0.479917379
  -0.479917379   0.479917379   0.000000000

ATOMIC_POSITIONS (alat)
Si            0.0000000000        0.0000000000        0.0000000000
Si            0.2399586895        0.2399586895        0.2399586895



     Writing config-only to output data dir /home/paolo/project_labqsm/Silicon/SCRATCH/silicon.save/
     NEW-OLD atomic charge density approx. for the potential
     extrapolated charge    7.86015, renormalised to    8.00000

     total cpu time spent up to now is       17.7 secs

     Self-consistent Calculation

     iteration #  1     ecut=    60.00 Ry     beta= 0.70
     Davidson diagonalization with overlap
     ethr =  1.00E-06,  avg # of iterations =  4.6

     total cpu time spent up to now is       18.4 secs

     total energy              =     -15.76616901 Ry
     estimated scf accuracy    <       0.00012438 Ry

     iteration #  2     ecut=    60.00 Ry     beta= 0.70
     Davidson diagonalization with overlap
     ethr =  1.55E-06,  avg # of iterations =  3.2

     total cpu time spent up to now is       19.1 secs

     total energy              =     -15.76639120 Ry
     estimated scf accuracy    <       0.00008120 Ry

     iteration #  3     ecut=    60.00 Ry     beta= 0.70
     Davidson diagonalization with overlap
     ethr =  1.01E-06,  avg # of iterations =  1.0

     total cpu time spent up to now is       19.5 secs

     total energy              =     -15.76638297 Ry
     estimated scf accuracy    <       0.00002391 Ry

     iteration #  4     ecut=    60.00 Ry     beta= 0.70
     Davidson diagonalization with overlap
     ethr =  2.99E-07,  avg # of iterations =  2.0

     total cpu time spent up to now is       20.0 secs

     total energy              =     -15.76638587 Ry
     estimated scf accuracy    <       0.00000207 Ry

     iteration #  5     ecut=    60.00 Ry     beta= 0.70
     Davidson diagonalization with overlap
     ethr =  2.58E-08,  avg # of iterations =  1.1

     total cpu time spent up to now is       20.4 secs

     total energy              =     -15.76638570 Ry
     estimated scf accuracy    <       0.00000048 Ry

     iteration #  6     ecut=    60.00 Ry     beta= 0.70
     Davidson diagonalization with overlap
     ethr =  6.02E-09,  avg # of iterations =  2.2

     total cpu time spent up to now is       20.9 secs

     total energy              =     -15.76638578 Ry
     estimated scf accuracy    <       0.00000007 Ry

     iteration #  7     ecut=    60.00 Ry     beta= 0.70
     Davidson diagonalization with overlap
     ethr =  8.14E-10,  avg # of iterations =  1.2

     total cpu time spent up to now is       21.3 secs

     total energy              =     -15.76638578 Ry
     estimated scf accuracy    <          4.9E-09 Ry

     iteration #  8     ecut=    60.00 Ry     beta= 0.70
     Davidson diagonalization with overlap
     ethr =  6.08E-11,  avg # of iterations =  2.6

     total cpu time spent up to now is       21.8 secs

     total energy              =     -15.76638578 Ry
     estimated scf accuracy    <          1.2E-09 Ry

     iteration #  9     ecut=    60.00 Ry     beta= 0.70
     Davidson diagonalization with overlap
     ethr =  1.50E-11,  avg # of iterations =  2.2

     total cpu time spent up to now is       22.3 secs

     End of self-consistent calculation

          k = 0.0000 0.0000 0.0000 (  2445 PWs)   bands (ev):

    -5.8178   5.9794   5.9794   5.9794

          k =-0.1302 0.1302-0.1302 (  2475 PWs)   bands (ev):

    -5.6179   4.3877   5.6992   5.6992

          k =-0.2605 0.2605-0.2605 (  2463 PWs)   bands (ev):

    -5.0353   2.0969   5.2398   5.2398

          k =-0.3907 0.3907-0.3907 (  2458 PWs)   bands (ev):

    -4.1637   0.1177   4.9192   4.9192

          k = 0.5209-0.5209 0.5209 (  2452 PWs)   bands (ev):

    -3.5472  -0.8768   4.8093   4.8093

          k = 0.0000 0.2605 0.0000 (  2469 PWs)   bands (ev):

    -5.5505   4.6201   5.1979   5.1979

          k =-0.1302 0.3907-0.1302 (  2471 PWs)   bands (ev):

    -5.0918   2.7735   4.6984   4.7577

          k =-0.2605 0.5209-0.2605 (  2469 PWs)   bands (ev):

    -4.2958   0.7576   4.1756   4.4351

          k = 0.6512-0.3907 0.6512 (  2457 PWs)   bands (ev):

    -3.4602  -0.6680   3.7402   4.4574

          k = 0.5209-0.2605 0.5209 (  2445 PWs)   bands (ev):

    -3.6964  -0.3082   3.5662   4.7454

          k = 0.3907-0.1302 0.3907 (  2463 PWs)   bands (ev):

    -4.5948   1.4019   3.7210   5.2239

          k = 0.2605 0.0000 0.2605 (  2459 PWs)   bands (ev):

    -5.2888   3.3034   4.3979   5.6923

          k = 0.0000 0.5209 0.0000 (  2477 PWs)   bands (ev):

    -4.7583   2.4562   4.1413   4.1413

          k =-0.1302 0.6512-0.1302 (  2454 PWs)   bands (ev):

    -4.0638   1.0641   3.3758   3.8298

          k = 0.7814-0.2605 0.7814 (  2454 PWs)   bands (ev):

    -3.1620  -0.3388   2.5288   3.8320

          k = 0.6512-0.1302 0.6512 (  2447 PWs)   bands (ev):

    -2.9660  -0.5874   2.0828   4.1420

          k = 0.5209 0.0000 0.5209 (  2437 PWs)   bands (ev):

    -3.8198   0.5426   2.3240   4.6858

          k = 0.0000 0.7814 0.0000 (  2450 PWs)   bands (ev):

    -3.4734   0.2680   3.4405   3.4405

          k = 0.9116-0.1302 0.9116 (  2448 PWs)   bands (ev):

    -2.5967  -0.7957   2.6359   3.3657

          k = 0.7814 0.0000 0.7814 (  2440 PWs)   bands (ev):

    -2.1758  -1.1792   1.7956   3.6170

          k = 0.0000-1.0418 0.0000 (  2450 PWs)   bands (ev):

    -1.7606  -1.7606   3.2000   3.2000

          k =-0.2605 0.5209 0.0000 (  2460 PWs)   bands (ev):

    -4.5168   1.7108   3.3385   4.5867

          k = 0.6512-0.3907 0.9116 (  2449 PWs)   bands (ev):

    -3.6501   0.1963   2.7342   4.1019

          k = 0.5209-0.2605 0.7814 (  2448 PWs)   bands (ev):

    -3.0186  -0.7193   2.6020   3.8802

          k = 0.7814-0.2605 1.0418 (  2435 PWs)   bands (ev):

    -3.2808   0.0534   2.7053   3.2967

          k = 0.6512-0.1302 0.9116 (  2454 PWs)   bands (ev):

    -2.4304  -0.8921   2.0267   3.1011

          k = 0.5209 0.0000 0.7814 (  2462 PWs)   bands (ev):

    -2.7730  -0.5350   1.8647   3.4663

          k =-0.2605-1.0418 0.0000 (  2444 PWs)   bands (ev):

    -1.6875  -1.6875   2.6550   2.6550

          k =-0.5209-1.0418 0.0000 (  2468 PWs)   bands (ev):

    -1.6074  -1.6074   2.2340   2.2340

     highest occupied level (ev):     5.9794

!    total energy              =     -15.76638578 Ry
     estimated scf accuracy    <          3.2E-12 Ry

     The total energy is the sum of the following terms:
     one-electron contribution =       4.56755422 Ry
     hartree contribution      =       1.12276180 Ry
     xc contribution           =      -4.79128187 Ry
     ewald contribution        =     -16.66541995 Ry

     convergence has been achieved in   9 iterations

     Forces acting on atoms (cartesian axes, Ry/au):

     atom    1 type  1   force =     0.00000000    0.00000000    0.00000000
     atom    2 type  1   force =     0.00000000    0.00000000    0.00000000
     The non-local contrib.  to forces
     atom    1 type  1   force =    -0.00000000    0.00000000    0.00000000
     atom    2 type  1   force =     0.00000000   -0.00000000   -0.00000000
     The ionic contribution  to forces
     atom    1 type  1   force =     0.00000000   -0.00000000   -0.00000000
     atom    2 type  1   force =     0.00000000    0.00000000    0.00000000
     The local contribution  to forces
     atom    1 type  1   force =    -0.00000000    0.00000000    0.00000000
     atom    2 type  1   force =     0.00000000    0.00000000    0.00000000
     The core correction contribution to forces
     atom    1 type  1   force =     0.00000000    0.00000000    0.00000000
     atom    2 type  1   force =     0.00000000    0.00000000    0.00000000
     The Hubbard contrib.    to forces
     atom    1 type  1   force =     0.00000000    0.00000000    0.00000000
     atom    2 type  1   force =     0.00000000    0.00000000    0.00000000
     The SCF correction term to forces
     atom    1 type  1   force =    -0.00000000   -0.00000000    0.00000000
     atom    2 type  1   force =     0.00000000    0.00000000   -0.00000000

     Total force =     0.000000     Total SCF correction =     0.000000


     Computing stress (Cartesian axis) and pressure

          total   stress  (Ry/bohr**3)                   (kbar)     P=        1.93
   0.00001315   0.00000000   0.00000000            1.93        0.00        0.00
   0.00000000   0.00001315  -0.00000000            0.00        1.93       -0.00
  -0.00000000  -0.00000000   0.00001315           -0.00       -0.00        1.93

     Energy error            =      1.9E-04 Ry
     Gradient error          =      4.3E-33 Ry/Bohr
     Cell gradient error     =      1.9E+00 kbar

     number of scf cycles    =   4
     number of bfgs steps    =   3

     enthalpy           old  =     -15.7661977424 Ry
     enthalpy           new  =     -15.7663857821 Ry

     CASE: enthalpy          _new < enthalpy          _old

     new trust radius        =       0.0024979572 bohr
     new conv_thr            =            1.0E-10 Ry

     new unit-cell volume =    277.27532 a.u.^3 (    41.08796 Ang^3 )
     density =      2.27007 g/cm^3

CELL_PARAMETERS (alat= 10.77625694)
  -0.480277754   0.000000000   0.480277754
   0.000000000   0.480277754   0.480277754
  -0.480277754   0.480277754   0.000000000

ATOMIC_POSITIONS (alat)
Si            0.0000000000        0.0000000000        0.0000000000
Si            0.2401388770        0.2401388770        0.2401388770



     Writing config-only to output data dir /home/paolo/project_labqsm/Silicon/SCRATCH/silicon.save/
     NEW-OLD atomic charge density approx. for the potential
     extrapolated charge    8.01779, renormalised to    8.00000

     total cpu time spent up to now is       23.4 secs

     Self-consistent Calculation

     iteration #  1     ecut=    60.00 Ry     beta= 0.70
     Davidson diagonalization with overlap
     ethr =  1.00E-06,  avg # of iterations =  1.0

     Threshold (ethr) on eigenvalues was too large:
     Diagonalizing with lowered threshold

     Davidson diagonalization with overlap
     ethr =  2.41E-08,  avg # of iterations =  3.2

     total cpu time spent up to now is       24.3 secs

     total energy              =     -15.76638634 Ry
     estimated scf accuracy    <       0.00000187 Ry

     iteration #  2     ecut=    60.00 Ry     beta= 0.70
     Davidson diagonalization with overlap
     ethr =  2.34E-08,  avg # of iterations =  3.3

     total cpu time spent up to now is       25.0 secs

     total energy              =     -15.76638987 Ry
     estimated scf accuracy    <       0.00000133 Ry

     iteration #  3     ecut=    60.00 Ry     beta= 0.70
     Davidson diagonalization with overlap
     ethr =  1.66E-08,  avg # of iterations =  1.0

     total cpu time spent up to now is       25.4 secs

     total energy              =     -15.76638972 Ry
     estimated scf accuracy    <       0.00000040 Ry

     iteration #  4     ecut=    60.00 Ry     beta= 0.70
     Davidson diagonalization with overlap
     ethr =  5.00E-09,  avg # of iterations =  2.0

     total cpu time spent up to now is       25.9 secs

     total energy              =     -15.76638977 Ry
     estimated scf accuracy    <       0.00000003 Ry

     iteration #  5     ecut=    60.00 Ry     beta= 0.70
     Davidson diagonalization with overlap
     ethr =  3.55E-10,  avg # of iterations =  1.2

     total cpu time spent up to now is       26.3 secs

     total energy              =     -15.76638977 Ry
     estimated scf accuracy    <          8.4E-09 Ry

     iteration #  6     ecut=    60.00 Ry     beta= 0.70
     Davidson diagonalization with overlap
     ethr =  1.05E-10,  avg # of iterations =  2.1

     total cpu time spent up to now is       26.8 secs

     total energy              =     -15.76638977 Ry
     estimated scf accuracy    <          7.1E-10 Ry

     iteration #  7     ecut=    60.00 Ry     beta= 0.70
     Davidson diagonalization with overlap
     ethr =  8.85E-12,  avg # of iterations =  1.6

     total cpu time spent up to now is       27.2 secs

     total energy              =     -15.76638977 Ry
     estimated scf accuracy    <          1.5E-10 Ry

     iteration #  8     ecut=    60.00 Ry     beta= 0.70
     Davidson diagonalization with overlap
     ethr =  1.89E-12,  avg # of iterations =  2.2

     total cpu time spent up to now is       27.7 secs

     End of self-consistent calculation

          k = 0.0000 0.0000 0.0000 (  2445 PWs)   bands (ev):

    -5.8257   5.9564   5.9564   5.9564

          k =-0.1301 0.1301-0.1301 (  2475 PWs)   bands (ev):

    -5.6262   4.3652   5.6768   5.6768

          k =-0.2603 0.2603-0.2603 (  2463 PWs)   bands (ev):

    -5.0447   2.0778   5.2182   5.2182

          k =-0.3904 0.3904-0.3904 (  2458 PWs)   bands (ev):

    -4.1752   0.1023   4.8980   4.8980

          k = 0.5205-0.5205 0.5205 (  2452 PWs)   bands (ev):

    -3.5607  -0.8896   4.7883   4.7883

          k = 0.0000 0.2603 0.0000 (  2469 PWs)   bands (ev):

    -5.5589   4.5948   5.1769   5.1769

          k =-0.1301 0.3904-0.1301 (  2471 PWs)   bands (ev):

    -5.1011   2.7520   4.6783   4.7364

          k =-0.2603 0.5205-0.2603 (  2469 PWs)   bands (ev):

    -4.3068   0.7402   4.1551   4.4154

          k = 0.6507-0.3904 0.6507 (  2457 PWs)   bands (ev):

    -3.4736  -0.6819   3.7206   4.4373

          k = 0.5205-0.2603 0.5205 (  2445 PWs)   bands (ev):

    -3.7090  -0.3231   3.5472   4.7246

          k = 0.3904-0.1301 0.3904 (  2463 PWs)   bands (ev):

    -4.6052   1.3831   3.7024   5.2021

          k = 0.2603 0.0000 0.2603 (  2459 PWs)   bands (ev):

    -5.2977   3.2810   4.3788   5.6696

          k = 0.0000 0.5205 0.0000 (  2477 PWs)   bands (ev):

    -4.7683   2.4327   4.1224   4.1224

          k =-0.1301 0.6507-0.1301 (  2454 PWs)   bands (ev):

    -4.0752   1.0434   3.3585   3.8114

          k = 0.7808-0.2603 0.7808 (  2454 PWs)   bands (ev):

    -3.1756  -0.3560   2.5130   3.8134

          k = 0.6507-0.1301 0.6507 (  2447 PWs)   bands (ev):

    -2.9803  -0.6038   2.0682   4.1227

          k = 0.5205 0.0000 0.5205 (  2437 PWs)   bands (ev):

    -3.8319   0.5235   2.3094   4.6652

          k = 0.0000 0.7808 0.0000 (  2450 PWs)   bands (ev):

    -3.4859   0.2481   3.4228   3.4228

          k = 0.9109-0.1301 0.9109 (  2448 PWs)   bands (ev):

    -2.6110  -0.8137   2.6208   3.3481

          k = 0.7808 0.0000 0.7808 (  2440 PWs)   bands (ev):

    -2.1918  -1.1959   1.7829   3.5989

          k = 0.0000-1.0411 0.0000 (  2450 PWs)   bands (ev):

    -1.7765  -1.7765   3.1828   3.1828

          k =-0.2603 0.5205 0.0000 (  2460 PWs)   bands (ev):

    -4.5273   1.6897   3.3216   4.5664

          k = 0.6507-0.3904 0.9109 (  2449 PWs)   bands (ev):

    -3.6626   0.1785   2.7178   4.0830

          k = 0.5205-0.2603 0.7808 (  2448 PWs)   bands (ev):

    -3.0330  -0.7344   2.5854   3.8620

          k = 0.7808-0.2603 1.0411 (  2435 PWs)   bands (ev):

    -3.2939   0.0339   2.6898   3.2800

          k = 0.6507-0.1301 0.9109 (  2454 PWs)   bands (ev):

    -2.4456  -0.9096   2.0130   3.0849

          k = 0.5205 0.0000 0.7808 (  2462 PWs)   bands (ev):

    -2.7876  -0.5530   1.8516   3.4492

          k =-0.2603-1.0411 0.0000 (  2444 PWs)   bands (ev):

    -1.7038  -1.7038   2.6398   2.6398

          k =-0.5205-1.0411 0.0000 (  2468 PWs)   bands (ev):

    -1.6243  -1.6243   2.2203   2.2203

     highest occupied level (ev):     5.9564

!    total energy              =     -15.76638977 Ry
     estimated scf accuracy    <          2.7E-12 Ry

     The total energy is the sum of the following terms:
     one-electron contribution =       4.55074414 Ry
     hartree contribution      =       1.12473773 Ry
     xc contribution           =      -4.78895656 Ry
     ewald contribution        =     -16.65291509 Ry

     convergence has been achieved in   8 iterations

     Forces acting on atoms (cartesian axes, Ry/au):

     atom    1 type  1   force =    -0.00000000   -0.00000000   -0.00000000
     atom    2 type  1   force =    -0.00000000   -0.00000000    0.00000000
     The non-local contrib.  to forces
     atom    1 type  1   force =    -0.00000000   -0.00000000    0.00000000
     atom    2 type  1   force =     0.00000000    0.00000000    0.00000000
     The ionic contribution  to forces
     atom    1 type  1   force =     0.00000000   -0.00000000    0.00000000
     atom    2 type  1   force =     0.00000000    0.00000000    0.00000000
     The local contribution  to forces
     atom    1 type  1   force =    -0.00000000    0.00000000    0.00000000
     atom    2 type  1   force =    -0.00000000    0.00000000    0.00000000
     The core correction contribution to forces
     atom    1 type  1   force =     0.00000000    0.00000000    0.00000000
     atom    2 type  1   force =     0.00000000    0.00000000    0.00000000
     The Hubbard contrib.    to forces
     atom    1 type  1   force =     0.00000000    0.00000000    0.00000000
     atom    2 type  1   force =     0.00000000    0.00000000    0.00000000
     The SCF correction term to forces
     atom    1 type  1   force =     0.00000000    0.00000000   -0.00000000
     atom    2 type  1   force =    -0.00000000    0.00000000    0.00000000

     Total force =     0.000000     Total SCF correction =     0.000000


     Computing stress (Cartesian axis) and pressure

          total   stress  (Ry/bohr**3)                   (kbar)     P=       -0.05
  -0.00000033   0.00000000   0.00000000           -0.05        0.00        0.00
   0.00000000  -0.00000033  -0.00000000            0.00       -0.05       -0.00
   0.00000000  -0.00000000  -0.00000033            0.00       -0.00       -0.05

     Energy error            =      4.0E-06 Ry
     Gradient error          =      8.6E-32 Ry/Bohr
     Cell gradient error     =      4.8E-02 kbar

     bfgs converged in   5 scf cycles and   4 bfgs steps
     (criteria: energy <  1.0E-05 Ry, force <  1.0E-04 Ry/Bohr, cell <  5.0E-01 kbar)

     End of BFGS Geometry Optimization

     Final enthalpy           =     -15.7663897721 Ry

     File /home/paolo/project_labqsm/Silicon/SCRATCH/silicon.bfgs deleted, as requested
Begin final coordinates
     new unit-cell volume =    277.27532 a.u.^3 (    41.08796 Ang^3 )
     density =      2.27007 g/cm^3

CELL_PARAMETERS (alat= 10.77625694)
  -0.480277754   0.000000000   0.480277754
   0.000000000   0.480277754   0.480277754
  -0.480277754   0.480277754   0.000000000

ATOMIC_POSITIONS (alat)
Si            0.0000000000        0.0000000000        0.0000000000
Si            0.2401388770        0.2401388770        0.2401388770
End final coordinates



     Writing config-only to output data dir /home/paolo/project_labqsm/Silicon/SCRATCH/silicon.save/

     Final scf calculation at the relaxed structure.
     The G-vectors are recalculated for the final unit cell
     Results may differ from those at the preceding step.

     G-vector sticks info
     --------------------
     sticks:   dense  smooth     PW     G-vecs:    dense   smooth      PW
     Sum         889     889    265                17453    17453    2891

     Using Slab Decomposition



     bravais-lattice index     =            2
     lattice parameter (alat)  =      10.7763  a.u.
     unit-cell volume          =     277.2753 (a.u.)^3
     number of atoms/cell      =            2
     number of atomic types    =            1
     number of electrons       =         8.00
     number of Kohn-Sham states=            4
     kinetic-energy cutoff     =      60.0000  Ry
     charge density cutoff     =     240.0000  Ry
     scf convergence threshold =      1.0E-10
     mixing beta               =       0.7000
     number of iterations used =            8  plain     mixing
     press convergence thresh. =      5.0E-01
     Exchange-correlation= PBE
                           (   1   4   3   4   0   0   0)

     celldm(1)=  10.776257  celldm(2)=   0.000000  celldm(3)=   0.000000
     celldm(4)=   0.000000  celldm(5)=   0.000000  celldm(6)=   0.000000

     crystal axes: (cart. coord. in units of alat)
               a(1) = (  -0.480278   0.000000   0.480278 )  
               a(2) = (   0.000000   0.480278   0.480278 )  
               a(3) = (  -0.480278   0.480278   0.000000 )  

     reciprocal axes: (cart. coord. in units 2 pi/alat)
               b(1) = ( -1.041064 -1.041064  1.041064 )  
               b(2) = (  1.041064  1.041064  1.041064 )  
               b(3) = ( -1.041064  1.041064 -1.041064 )  


     PseudoPot. # 1 for Si read from file:
     /home/paolo/project_labqsm/pseudopotentials/Si_ONCV_PBE-1.2.upf
     MD5 check sum: 7f029a58b69e3aa87b46a36c608bf45e
     Pseudo is Norm-conserving, Zval =  4.0
     Generated using ONCVPSP code by D. R. Hamann
     Using radial grid of  602 points,  4 beta functions with: 
                l(1) =   0
                l(2) =   0
                l(3) =   1
                l(4) =   1

     atomic species   valence    mass     pseudopotential
        Si             4.00    28.08500     Si( 1.00)

     48 Sym. Ops., with inversion, found (24 have fractional translation)



   Cartesian axes

     site n.     atom                  positions (alat units)
         1           Si  tau(   1) = (   0.0000000   0.0000000   0.0000000  )
         2           Si  tau(   2) = (   0.2401389   0.2401389   0.2401389  )

     number of k points=    29
                       cart. coord. in units 2pi/alat
        k(    1) = (   0.0000000   0.0000000   0.0000000), wk =   0.0039062
        k(    2) = (  -0.1301330   0.1301330  -0.1301330), wk =   0.0312500
        k(    3) = (  -0.2602661   0.2602661  -0.2602661), wk =   0.0312500
        k(    4) = (  -0.3903991   0.3903991  -0.3903991), wk =   0.0312500
        k(    5) = (   0.5205321  -0.5205321   0.5205321), wk =   0.0156250
        k(    6) = (   0.0000000   0.2602661   0.0000000), wk =   0.0234375
        k(    7) = (  -0.1301330   0.3903991  -0.1301330), wk =   0.0937500
        k(    8) = (  -0.2602661   0.5205321  -0.2602661), wk =   0.0937500
        k(    9) = (   0.6506652  -0.3903991   0.6506652), wk =   0.0937500
        k(   10) = (   0.5205321  -0.2602661   0.5205321), wk =   0.0937500
        k(   11) = (   0.3903991  -0.1301330   0.3903991), wk =   0.0937500
        k(   12) = (   0.2602661   0.0000000   0.2602661), wk =   0.0468750
        k(   13) = (   0.0000000   0.5205321   0.0000000), wk =   0.0234375
        k(   14) = (  -0.1301330   0.6506652  -0.1301330), wk =   0.0937500
        k(   15) = (   0.7807982  -0.2602661   0.7807982), wk =   0.0937500
        k(   16) = (   0.6506652  -0.1301330   0.6506652), wk =   0.0937500
        k(   17) = (   0.5205321   0.0000000   0.5205321), wk =   0.0468750
        k(   18) = (   0.0000000   0.7807982   0.0000000), wk =   0.0234375
        k(   19) = (   0.9109312  -0.1301330   0.9109312), wk =   0.0937500
        k(   20) = (   0.7807982   0.0000000   0.7807982), wk =   0.0468750
        k(   21) = (   0.0000000  -1.0410643   0.0000000), wk =   0.0117188
        k(   22) = (  -0.2602661   0.5205321   0.0000000), wk =   0.0937500
        k(   23) = (   0.6506652  -0.3903991   0.9109312), wk =   0.1875000
        k(   24) = (   0.5205321  -0.2602661   0.7807982), wk =   0.0937500
        k(   25) = (   0.7807982  -0.2602661   1.0410643), wk =   0.0937500
        k(   26) = (   0.6506652  -0.1301330   0.9109312), wk =   0.1875000
        k(   27) = (   0.5205321   0.0000000   0.7807982), wk =   0.0937500
        k(   28) = (  -0.2602661  -1.0410643   0.0000000), wk =   0.0468750
        k(   29) = (  -0.5205321  -1.0410643   0.0000000), wk =   0.0234375

     Dense  grid:    17453 G-vectors     FFT dimensions: (  40,  40,  40)

     Estimated max dynamical RAM per process >      17.56 MB

     Initial potential from superposition of free atoms

     starting charge       7.9075, renormalised to       8.0000
     Starting wfcs are random

     total cpu time spent up to now is       28.8 secs

     Self-consistent Calculation

     iteration #  1     ecut=    60.00 Ry     beta= 0.70
     Davidson diagonalization with overlap
     c_bands:  3 eigenvalues not converged
     c_bands:  3 eigenvalues not converged
     c_bands:  2 eigenvalues not converged
     c_bands:  1 eigenvalues not converged
     c_bands:  1 eigenvalues not converged
     c_bands:  3 eigenvalues not converged
     c_bands:  2 eigenvalues not converged
     c_bands:  1 eigenvalues not converged
     c_bands:  2 eigenvalues not converged
     c_bands:  1 eigenvalues not converged
     c_bands:  2 eigenvalues not converged
     c_bands:  1 eigenvalues not converged
     c_bands:  1 eigenvalues not converged
     c_bands:  2 eigenvalues not converged
     c_bands:  1 eigenvalues not converged
     ethr =  1.00E-06,  avg # of iterations = 19.0

     total cpu time spent up to now is       31.2 secs

     total energy              =     -15.76397030 Ry
     estimated scf accuracy    <       0.05098508 Ry

     iteration #  2     ecut=    60.00 Ry     beta= 0.70
     Davidson diagonalization with overlap
     ethr =  6.37E-04,  avg # of iterations =  1.1

     total cpu time spent up to now is       31.6 secs

     total energy              =     -15.76605205 Ry
     estimated scf accuracy    <       0.00231976 Ry

     iteration #  3     ecut=    60.00 Ry     beta= 0.70
     Davidson diagonalization with overlap
     ethr =  2.90E-05,  avg # of iterations =  2.1

     total cpu time spent up to now is       32.0 secs

     total energy              =     -15.76634117 Ry
     estimated scf accuracy    <       0.00002960 Ry

     iteration #  4     ecut=    60.00 Ry     beta= 0.70
     Davidson diagonalization with overlap
     ethr =  3.70E-07,  avg # of iterations =  4.9

     total cpu time spent up to now is       32.7 secs

     total energy              =     -15.76637708 Ry
     estimated scf accuracy    <       0.00000212 Ry

     iteration #  5     ecut=    60.00 Ry     beta= 0.70
     Davidson diagonalization with overlap
     ethr =  2.65E-08,  avg # of iterations =  3.0

     total cpu time spent up to now is       33.3 secs

     total energy              =     -15.76637792 Ry
     estimated scf accuracy    <       0.00000027 Ry

     iteration #  6     ecut=    60.00 Ry     beta= 0.70
     Davidson diagonalization with overlap
     ethr =  3.37E-09,  avg # of iterations =  3.2

     total cpu time spent up to now is       33.8 secs

     total energy              =     -15.76637801 Ry
     estimated scf accuracy    <       0.00000001 Ry

     iteration #  7     ecut=    60.00 Ry     beta= 0.70
     Davidson diagonalization with overlap
     ethr =  1.70E-10,  avg # of iterations =  3.5

     total cpu time spent up to now is       34.4 secs

     End of self-consistent calculation

          k = 0.0000 0.0000 0.0000 (  2109 PWs)   bands (ev):

    -5.8257   5.9565   5.9565   5.9565

          k =-0.1301 0.1301-0.1301 (  2157 PWs)   bands (ev):

    -5.6262   4.3653   5.6769   5.6769

          k =-0.2603 0.2603-0.2603 (  2172 PWs)   bands (ev):

    -5.0447   2.0778   5.2182   5.2182

          k =-0.3904 0.3904-0.3904 (  2168 PWs)   bands (ev):

    -4.1751   0.1023   4.8981   4.8981

          k = 0.5205-0.5205 0.5205 (  2186 PWs)   bands (ev):

    -3.5606  -0.8896   4.7883   4.7883

          k = 0.0000 0.2603 0.0000 (  2153 PWs)   bands (ev):

    -5.5589   4.5949   5.1770   5.1770

          k =-0.1301 0.3904-0.1301 (  2164 PWs)   bands (ev):

    -5.1011   2.7520   4.6784   4.7364

          k =-0.2603 0.5205-0.2603 (  2162 PWs)   bands (ev):

    -4.3068   0.7402   4.1551   4.4154

          k = 0.6507-0.3904 0.6507 (  2176 PWs)   bands (ev):

    -3.4736  -0.6819   3.7206   4.4374

          k = 0.5205-0.2603 0.5205 (  2172 PWs)   bands (ev):

    -3.7090  -0.3231   3.5473   4.7246

          k = 0.3904-0.1301 0.3904 (  2173 PWs)   bands (ev):

    -4.6052   1.3832   3.7025   5.2021

          k = 0.2603 0.0000 0.2603 (  2153 PWs)   bands (ev):

    -5.2977   3.2810   4.3789   5.6697

          k = 0.0000 0.5205 0.0000 (  2181 PWs)   bands (ev):

    -4.7683   2.4327   4.1224   4.1224

          k =-0.1301 0.6507-0.1301 (  2165 PWs)   bands (ev):

    -4.0752   1.0434   3.3585   3.8114

          k = 0.7808-0.2603 0.7808 (  2182 PWs)   bands (ev):

    -3.1756  -0.3560   2.5130   3.8135

          k = 0.6507-0.1301 0.6507 (  2182 PWs)   bands (ev):

    -2.9803  -0.6038   2.0682   4.1228

          k = 0.5205 0.0000 0.5205 (  2181 PWs)   bands (ev):

    -3.8319   0.5236   2.3094   4.6653

          k = 0.0000 0.7808 0.0000 (  2161 PWs)   bands (ev):

    -3.4858   0.2481   3.4229   3.4229

          k = 0.9109-0.1301 0.9109 (  2179 PWs)   bands (ev):

    -2.6110  -0.8136   2.6208   3.3481

          k = 0.7808 0.0000 0.7808 (  2171 PWs)   bands (ev):

    -2.1917  -1.1959   1.7829   3.5989

          k = 0.0000-1.0411 0.0000 (  2200 PWs)   bands (ev):

    -1.7765  -1.7765   3.1828   3.1828

          k =-0.2603 0.5205 0.0000 (  2170 PWs)   bands (ev):

    -4.5272   1.6897   3.3217   4.5664

          k = 0.6507-0.3904 0.9109 (  2180 PWs)   bands (ev):

    -3.6625   0.1785   2.7178   4.0831

          k = 0.5205-0.2603 0.7808 (  2174 PWs)   bands (ev):

    -3.0330  -0.7344   2.5854   3.8620

          k = 0.7808-0.2603 1.0411 (  2183 PWs)   bands (ev):

    -3.2939   0.0340   2.6898   3.2800

          k = 0.6507-0.1301 0.9109 (  2188 PWs)   bands (ev):

    -2.4456  -0.9096   2.0131   3.0849

          k = 0.5205 0.0000 0.7808 (  2192 PWs)   bands (ev):

    -2.7875  -0.5530   1.8516   3.4492

          k =-0.2603-1.0411 0.0000 (  2174 PWs)   bands (ev):

    -1.7038  -1.7038   2.6398   2.6398

          k =-0.5205-1.0411 0.0000 (  2180 PWs)   bands (ev):

    -1.6243  -1.6243   2.2203   2.2203

     highest occupied level (ev):     5.9565

!    total energy              =     -15.76637802 Ry
     estimated scf accuracy    <          3.2E-11 Ry

     The total energy is the sum of the following terms:
     one-electron contribution =       4.55076457 Ry
     hartree contribution      =       1.12472857 Ry
     xc contribution           =      -4.78895606 Ry
     ewald contribution        =     -16.65291509 Ry

     convergence has been achieved in   7 iterations

     Forces acting on atoms (cartesian axes, Ry/au):

     atom    1 type  1   force =    -0.00000000   -0.00000000    0.00000000
     atom    2 type  1   force =     0.00000000    0.00000000   -0.00000000
     The non-local contrib.  to forces
     atom    1 type  1   force =     0.00000000    0.00000000   -0.00000000
     atom    2 type  1   force =     0.00000000    0.00000000    0.00000000
     The ionic contribution  to forces
     atom    1 type  1   force =    -0.00000000    0.00000000    0.00000000
     atom    2 type  1   force =     0.00000000    0.00000000    0.00000000
     The local contribution  to forces
     atom    1 type  1   force =    -0.00000000    0.00000000    0.00000000
     atom    2 type  1   force =     0.00000000    0.00000000    0.00000000
     The core correction contribution to forces
     atom    1 type  1   force =     0.00000000    0.00000000    0.00000000
     atom    2 type  1   force =     0.00000000    0.00000000    0.00000000
     The Hubbard contrib.    to forces
     atom    1 type  1   force =     0.00000000    0.00000000    0.00000000
     atom    2 type  1   force =     0.00000000    0.00000000    0.00000000
     The SCF correction term to forces
     atom    1 type  1   force =     0.00000000   -0.00000000   -0.00000000
     atom    2 type  1   force =    -0.00000000    0.00000000    0.00000000

     Total force =     0.000000     Total SCF correction =     0.000000


     Computing stress (Cartesian axis) and pressure

          total   stress  (Ry/bohr**3)                   (kbar)     P=       -0.08
  -0.00000051  -0.00000000  -0.00000000           -0.08       -0.00       -0.00
  -0.00000000  -0.00000051   0.00000000           -0.00       -0.08        0.00
  -0.00000000   0.00000000  -0.00000051           -0.00        0.00       -0.08


     Writing all to output data dir /home/paolo/project_labqsm/Silicon/SCRATCH/silicon.save/

     init_run     :      0.80s CPU      0.84s WALL (       2 calls)
     electrons    :     27.39s CPU     28.29s WALL (       6 calls)
     update_pot   :      1.45s CPU      1.49s WALL (       4 calls)
     forces       :      1.03s CPU      1.04s WALL (       6 calls)
     stress       :      2.75s CPU      3.36s WALL (       6 calls)

     Called by init_run:
     wfcinit      :      0.28s CPU      0.30s WALL (       2 calls)
     potinit      :      0.31s CPU      0.33s WALL (       2 calls)
     hinit0       :      0.17s CPU      0.18s WALL (       2 calls)

     Called by electrons:
     c_bands      :     23.14s CPU     23.71s WALL (      49 calls)
     sum_band     :      3.23s CPU      3.43s WALL (      49 calls)
     v_of_rho     :      1.00s CPU      1.16s WALL (      53 calls)
     mix_rho      :      0.08s CPU      0.11s WALL (      49 calls)

     Called by c_bands:
     init_us_2    :      0.83s CPU      0.82s WALL (    3248 calls)
     init_us_2:cp :      0.83s CPU      0.81s WALL (    3248 calls)
     cegterg      :     22.23s CPU     22.59s WALL (    1421 calls)

     Called by *egterg:
     cdiaghg      :      0.16s CPU      0.10s WALL (    5504 calls)
     h_psi        :     20.94s CPU     21.15s WALL (    5736 calls)
     g_psi        :      0.14s CPU      0.10s WALL (    4257 calls)

     Called by h_psi:
     h_psi:calbec :      0.98s CPU      0.82s WALL (    5736 calls)
     vloc_psi     :     19.38s CPU     19.64s WALL (    5736 calls)
     add_vuspsi   :      0.48s CPU      0.58s WALL (    5736 calls)

     General routines
     calbec       :      1.11s CPU      0.94s WALL (    6606 calls)
     fft          :      0.45s CPU      0.46s WALL (     578 calls)
     ffts         :      0.00s CPU      0.04s WALL (      49 calls)
     fftw         :     20.27s CPU     20.50s WALL (   44366 calls)


     PWSCF        :     33.45s CPU     35.08s WALL


   This run was terminated on:  11:37: 9   9Jun2024            

=------------------------------------------------------------------------------=
   JOB DONE.
=------------------------------------------------------------------------------=
