
     Program PWSCF v.7.2 starts on 12May2024 at 12:21:54 

     This program is part of the open-source Quantum ESPRESSO suite
     for quantum simulation of materials; please cite
         "P. Giannozzi et al., J. Phys.:Condens. Matter 21 395502 (2009);
         "P. Giannozzi et al., J. Phys.:Condens. Matter 29 465901 (2017);
         "P. Giannozzi et al., J. Chem. Phys. 152 154105 (2020);
          URL http://www.quantum-espresso.org", 
     in publications or presentations arising from this work. More details at
     http://www.quantum-espresso.org/quote

     Serial version
     8921 MiB available memory on the printing compute node when the environment starts

     Waiting for input...
     Reading input from standard input

     Current dimensions of program PWSCF are:
     Max number of different atomic species (ntypx) = 10
     Max number of k-points (npk) =  40000
     Max angular momentum in pseudopotentials (lmaxx) =  4


     G-vector sticks info
     --------------------
     sticks:   dense  smooth     PW     G-vecs:    dense   smooth      PW
     Sum         955     955    295                19603    19603    3215

     Using Slab Decomposition



     bravais-lattice index     =            2
     lattice parameter (alat)  =      10.7763  a.u.
     unit-cell volume          =     312.8555 (a.u.)^3
     number of atoms/cell      =            2
     number of atomic types    =            1
     number of electrons       =         8.00
     number of Kohn-Sham states=            4
     kinetic-energy cutoff     =      60.0000  Ry
     charge density cutoff     =     240.0000  Ry
     scf convergence threshold =      1.0E-08
     mixing beta               =       0.7000
     number of iterations used =            8  plain     mixing
     energy convergence thresh.=      1.0E-05
     force convergence thresh. =      1.0E-04
     press convergence thresh. =      5.0E-01
     Exchange-correlation=  SLA  PZ   NOGX NOGC
                           (   1   1   0   0   0   0   0)
     nstep                     =           50


     celldm(1)=  10.776257  celldm(2)=   0.000000  celldm(3)=   0.000000
     celldm(4)=   0.000000  celldm(5)=   0.000000  celldm(6)=   0.000000

     crystal axes: (cart. coord. in units of alat)
               a(1) = (  -0.500000   0.000000   0.500000 )  
               a(2) = (   0.000000   0.500000   0.500000 )  
               a(3) = (  -0.500000   0.500000   0.000000 )  

     reciprocal axes: (cart. coord. in units 2 pi/alat)
               b(1) = ( -1.000000 -1.000000  1.000000 )  
               b(2) = (  1.000000  1.000000  1.000000 )  
               b(3) = ( -1.000000  1.000000 -1.000000 )  


     PseudoPot. # 1 for Si read from file:
     /home/paolo/project_labqsm/pseudopotentials/Si.pz-vbc.UPF
     MD5 check sum: dc3b11d017da532b29132e08c0a6883c
     Pseudo is Norm-conserving, Zval =  4.0
     Generated by new atomic code, or converted to UPF format
     Using radial grid of  431 points,  2 beta functions with: 
                l(1) =   0
                l(2) =   1

     atomic species   valence    mass     pseudopotential
        Si             4.00    28.08500     Si( 1.00)

     48 Sym. Ops., with inversion, found (24 have fractional translation)



   Cartesian axes

     site n.     atom                  positions (alat units)
         1           Si  tau(   1) = (   0.0000000   0.0000000   0.0000000  )
         2           Si  tau(   2) = (   0.2500000   0.2500000   0.2500000  )

     number of k points=    29
                       cart. coord. in units 2pi/alat
        k(    1) = (   0.0000000   0.0000000   0.0000000), wk =   0.0039062
        k(    2) = (  -0.1250000   0.1250000  -0.1250000), wk =   0.0312500
        k(    3) = (  -0.2500000   0.2500000  -0.2500000), wk =   0.0312500
        k(    4) = (  -0.3750000   0.3750000  -0.3750000), wk =   0.0312500
        k(    5) = (   0.5000000  -0.5000000   0.5000000), wk =   0.0156250
        k(    6) = (   0.0000000   0.2500000   0.0000000), wk =   0.0234375
        k(    7) = (  -0.1250000   0.3750000  -0.1250000), wk =   0.0937500
        k(    8) = (  -0.2500000   0.5000000  -0.2500000), wk =   0.0937500
        k(    9) = (   0.6250000  -0.3750000   0.6250000), wk =   0.0937500
        k(   10) = (   0.5000000  -0.2500000   0.5000000), wk =   0.0937500
        k(   11) = (   0.3750000  -0.1250000   0.3750000), wk =   0.0937500
        k(   12) = (   0.2500000   0.0000000   0.2500000), wk =   0.0468750
        k(   13) = (   0.0000000   0.5000000   0.0000000), wk =   0.0234375
        k(   14) = (  -0.1250000   0.6250000  -0.1250000), wk =   0.0937500
        k(   15) = (   0.7500000  -0.2500000   0.7500000), wk =   0.0937500
        k(   16) = (   0.6250000  -0.1250000   0.6250000), wk =   0.0937500
        k(   17) = (   0.5000000   0.0000000   0.5000000), wk =   0.0468750
        k(   18) = (   0.0000000   0.7500000   0.0000000), wk =   0.0234375
        k(   19) = (   0.8750000  -0.1250000   0.8750000), wk =   0.0937500
        k(   20) = (   0.7500000   0.0000000   0.7500000), wk =   0.0468750
        k(   21) = (   0.0000000  -1.0000000   0.0000000), wk =   0.0117188
        k(   22) = (  -0.2500000   0.5000000   0.0000000), wk =   0.0937500
        k(   23) = (   0.6250000  -0.3750000   0.8750000), wk =   0.1875000
        k(   24) = (   0.5000000  -0.2500000   0.7500000), wk =   0.0937500
        k(   25) = (   0.7500000  -0.2500000   1.0000000), wk =   0.0937500
        k(   26) = (   0.6250000  -0.1250000   0.8750000), wk =   0.1875000
        k(   27) = (   0.5000000   0.0000000   0.7500000), wk =   0.0937500
        k(   28) = (  -0.2500000  -1.0000000   0.0000000), wk =   0.0468750
        k(   29) = (  -0.5000000  -1.0000000   0.0000000), wk =   0.0234375

     Dense  grid:    19603 G-vectors     FFT dimensions: (  40,  40,  40)

     Estimated max dynamical RAM per process >      18.16 MB

     Initial potential from superposition of free atoms

     starting charge       7.9990, renormalised to       8.0000
     Starting wfcs are    8 randomized atomic wfcs

     total cpu time spent up to now is        0.5 secs

     Self-consistent Calculation

     iteration #  1     ecut=    60.00 Ry     beta= 0.70
     Davidson diagonalization with overlap
     ethr =  1.00E-02,  avg # of iterations =  2.0

     Threshold (ethr) on eigenvalues was too large:
     Diagonalizing with lowered threshold

     Davidson diagonalization with overlap
     ethr =  5.13E-04,  avg # of iterations =  1.4

     total cpu time spent up to now is        1.3 secs

     total energy              =     -15.83140443 Ry
     estimated scf accuracy    <       0.04534993 Ry

     iteration #  2     ecut=    60.00 Ry     beta= 0.70
     Davidson diagonalization with overlap
     ethr =  5.67E-04,  avg # of iterations =  1.0

     total cpu time spent up to now is        1.7 secs

     total energy              =     -15.83303957 Ry
     estimated scf accuracy    <       0.00213862 Ry

     iteration #  3     ecut=    60.00 Ry     beta= 0.70
     Davidson diagonalization with overlap
     ethr =  2.67E-05,  avg # of iterations =  1.9

     total cpu time spent up to now is        2.1 secs

     total energy              =     -15.83332145 Ry
     estimated scf accuracy    <       0.00004546 Ry

     iteration #  4     ecut=    60.00 Ry     beta= 0.70
     Davidson diagonalization with overlap
     ethr =  5.68E-07,  avg # of iterations =  4.2

     total cpu time spent up to now is        2.7 secs

     total energy              =     -15.83335949 Ry
     estimated scf accuracy    <       0.00000003 Ry

     iteration #  5     ecut=    60.00 Ry     beta= 0.70
     Davidson diagonalization with overlap
     ethr =  3.35E-10,  avg # of iterations =  7.7

     total cpu time spent up to now is        3.7 secs

     total energy              =     -15.83336026 Ry
     estimated scf accuracy    <       0.00000002 Ry

     iteration #  6     ecut=    60.00 Ry     beta= 0.70
     Davidson diagonalization with overlap
     ethr =  2.26E-10,  avg # of iterations =  2.1

     total cpu time spent up to now is        4.2 secs

     total energy              =     -15.83336026 Ry
     estimated scf accuracy    <       0.00000003 Ry

     iteration #  7     ecut=    60.00 Ry     beta= 0.70
     Davidson diagonalization with overlap
     ethr =  2.26E-10,  avg # of iterations =  2.0

     total cpu time spent up to now is        4.6 secs

     End of self-consistent calculation

          k = 0.0000 0.0000 0.0000 (  2445 PWs)   bands (ev):

    -6.3724   4.6189   4.6189   4.6189

          k =-0.1250 0.1250-0.1250 (  2475 PWs)   bands (ev):

    -6.1927   3.0174   4.3697   4.3697

          k =-0.2500 0.2500-0.2500 (  2463 PWs)   bands (ev):

    -5.6709   0.9122   3.9500   3.9500

          k =-0.3750 0.3750-0.3750 (  2458 PWs)   bands (ev):

    -4.9004  -0.8704   3.6511   3.6511

          k = 0.5000-0.5000 0.5000 (  2452 PWs)   bands (ev):

    -4.3739  -1.7415   3.5476   3.5476

          k = 0.0000 0.2500 0.0000 (  2469 PWs)   bands (ev):

    -6.1320   3.1115   3.9348   3.9348

          k =-0.1250 0.3750-0.1250 (  2471 PWs)   bands (ev):

    -5.7204   1.4663   3.4808   3.4824

          k =-0.2500 0.5000-0.2500 (  2469 PWs)   bands (ev):

    -5.0122  -0.3327   2.9360   3.2352

          k = 0.6250-0.3750 0.6250 (  2457 PWs)   bands (ev):

    -4.2888  -1.5857   2.5435   3.2449

          k = 0.5000-0.2500 0.5000 (  2445 PWs)   bands (ev):

    -4.4899  -1.2733   2.4025   3.4969

          k = 0.3750-0.1250 0.3750 (  2463 PWs)   bands (ev):

    -5.2776   0.2406   2.5750   3.9241

          k = 0.2500 0.0000 0.2500 (  2459 PWs)   bands (ev):

    -5.8973   1.9504   3.2253   4.3463

          k = 0.0000 0.5000 0.0000 (  2477 PWs)   bands (ev):

    -5.4202   1.0701   2.9832   2.9832

          k =-0.1250 0.6250-0.1250 (  2454 PWs)   bands (ev):

    -4.7992  -0.1724   2.2893   2.6975

          k = 0.7500-0.2500 0.7500 (  2454 PWs)   bands (ev):

    -4.0070  -1.3992   1.5213   2.6934

          k = 0.6250-0.1250 0.6250 (  2447 PWs)   bands (ev):

    -3.8441  -1.6072   1.1309   2.9671

          k = 0.5000 0.0000 0.5000 (  2437 PWs)   bands (ev):

    -4.5890  -0.6132   1.3690   3.4492

          k = 0.0000 0.7500 0.0000 (  2450 PWs)   bands (ev):

    -4.2676  -0.9150   2.3453   2.3453

          k = 0.8750-0.1250 0.8750 (  2448 PWs)   bands (ev):

    -3.4878  -1.8728   1.6511   2.2752

          k = 0.7500 0.0000 0.7500 (  2440 PWs)   bands (ev):

    -3.1396  -2.1994   0.9240   2.4994

          k = 0.0000-1.0000 0.0000 (  2450 PWs)   bands (ev):

    -2.7339  -2.7339   2.1257   2.1257

          k =-0.2500 0.5000 0.0000 (  2460 PWs)   bands (ev):

    -5.2059   0.4416   2.2724   3.3594

          k = 0.6250-0.3750 0.8750 (  2449 PWs)   bands (ev):

    -4.4387  -0.9003   1.6945   2.9421

          k = 0.5000-0.2500 0.7500 (  2448 PWs)   bands (ev):

    -3.8963  -1.6880   1.5526   2.7523

          k = 0.7500-0.2500 1.0000 (  2435 PWs)   bands (ev):

    -4.1016  -1.1074   1.7058   2.2410

          k = 0.6250-0.1250 0.8750 (  2454 PWs)   bands (ev):

    -3.3593  -1.9480   1.1146   2.0688

          k = 0.5000 0.0000 0.7500 (  2462 PWs)   bands (ev):

    -3.6645  -1.6219   0.9737   2.3884

          k =-0.2500-1.0000 0.0000 (  2444 PWs)   bands (ev):

    -2.6794  -2.6794   1.6696   1.6696

          k =-0.5000-1.0000 0.0000 (  2468 PWs)   bands (ev):

    -2.6209  -2.6209   1.3143   1.3143

     highest occupied level (ev):     4.6189

!    total energy              =     -15.83336026 Ry
     estimated scf accuracy    <          6.5E-10 Ry

     The total energy is the sum of the following terms:
     one-electron contribution =       3.58709710 Ry
     hartree contribution      =       1.22102962 Ry
     xc contribution           =      -4.64543766 Ry
     ewald contribution        =     -15.99604932 Ry

     convergence has been achieved in   7 iterations

     Forces acting on atoms (cartesian axes, Ry/au):

     atom    1 type  1   force =    -0.00000000    0.00000000   -0.00000000
     atom    2 type  1   force =     0.00000000   -0.00000000    0.00000000
     The non-local contrib.  to forces
     atom    1 type  1   force =     0.00000000   -0.00000000   -0.00000000
     atom    2 type  1   force =    -0.00000000   -0.00000000   -0.00000000
     The ionic contribution  to forces
     atom    1 type  1   force =    -0.00000000   -0.00000000   -0.00000000
     atom    2 type  1   force =     0.00000000    0.00000000    0.00000000
     The local contribution  to forces
     atom    1 type  1   force =    -0.00000000    0.00000000   -0.00000000
     atom    2 type  1   force =     0.00000000   -0.00000000   -0.00000000
     The core correction contribution to forces
     atom    1 type  1   force =     0.00000000    0.00000000    0.00000000
     atom    2 type  1   force =     0.00000000    0.00000000    0.00000000
     The Hubbard contrib.    to forces
     atom    1 type  1   force =     0.00000000    0.00000000    0.00000000
     atom    2 type  1   force =     0.00000000    0.00000000    0.00000000
     The SCF correction term to forces
     atom    1 type  1   force =    -0.00000000    0.00000000    0.00000000
     atom    2 type  1   force =     0.00000000    0.00000000   -0.00000000

     Total force =     0.000000     Total SCF correction =     0.000000


     Computing stress (Cartesian axis) and pressure

          total   stress  (Ry/bohr**3)                   (kbar)     P=     -108.38
  -0.00073677   0.00000000   0.00000000         -108.38        0.00        0.00
   0.00000000  -0.00073677   0.00000000            0.00     -108.38        0.00
   0.00000000   0.00000000  -0.00073677            0.00        0.00     -108.38


     BFGS Geometry Optimization
     Energy error            =      0.0E+00 Ry
     Gradient error          =      3.9E-33 Ry/Bohr
     Cell gradient error     =      1.1E+02 kbar

     number of scf cycles    =   1
     number of bfgs steps    =   0

     enthalpy           new  =     -15.8333602574 Ry

     new trust radius        =       0.0651592087 bohr
     new conv_thr            =       0.0000000100 Ry

     new unit-cell volume =    295.88422 a.u.^3 (    43.84552 Ang^3 )
     density =      2.12730 g/cm^3

CELL_PARAMETERS (alat= 10.77625694)
  -0.490790334   0.000000000   0.490790334
   0.000000000   0.490790334   0.490790334
  -0.490790334   0.490790334  -0.000000000

ATOMIC_POSITIONS (alat)
Si           -0.0000000000        0.0000000000       -0.0000000000
Si            0.2453951668        0.2453951668        0.2453951668



     Writing config-only to output data dir /home/paolo/project_labqsm/Silicon/SCRATCH/silicon.save/
     NEW-OLD atomic charge density approx. for the potential
     extrapolated charge    7.54119, renormalised to    8.00000

     total cpu time spent up to now is        5.2 secs

     Self-consistent Calculation

     iteration #  1     ecut=    60.00 Ry     beta= 0.70
     Davidson diagonalization with overlap
     ethr =  1.00E-06,  avg # of iterations =  5.8

     total cpu time spent up to now is        6.1 secs

     total energy              =     -15.84178044 Ry
     estimated scf accuracy    <       0.00158282 Ry

     iteration #  2     ecut=    60.00 Ry     beta= 0.70
     Davidson diagonalization with overlap
     ethr =  1.98E-05,  avg # of iterations =  3.1

     total cpu time spent up to now is        6.7 secs

     total energy              =     -15.84441996 Ry
     estimated scf accuracy    <       0.00099989 Ry

     iteration #  3     ecut=    60.00 Ry     beta= 0.70
     Davidson diagonalization with overlap
     ethr =  1.25E-05,  avg # of iterations =  1.0

     total cpu time spent up to now is        7.0 secs

     total energy              =     -15.84430771 Ry
     estimated scf accuracy    <       0.00026201 Ry

     iteration #  4     ecut=    60.00 Ry     beta= 0.70
     Davidson diagonalization with overlap
     ethr =  3.28E-06,  avg # of iterations =  2.0

     total cpu time spent up to now is        7.5 secs

     total energy              =     -15.84435093 Ry
     estimated scf accuracy    <       0.00002197 Ry

     iteration #  5     ecut=    60.00 Ry     beta= 0.70
     Davidson diagonalization with overlap
     ethr =  2.75E-07,  avg # of iterations =  1.1

     total cpu time spent up to now is        7.9 secs

     total energy              =     -15.84434872 Ry
     estimated scf accuracy    <       0.00000509 Ry

     iteration #  6     ecut=    60.00 Ry     beta= 0.70
     Davidson diagonalization with overlap
     ethr =  6.36E-08,  avg # of iterations =  2.0

     total cpu time spent up to now is        8.3 secs

     total energy              =     -15.84434954 Ry
     estimated scf accuracy    <       0.00000025 Ry

     iteration #  7     ecut=    60.00 Ry     beta= 0.70
     Davidson diagonalization with overlap
     ethr =  3.07E-09,  avg # of iterations =  1.8

     total cpu time spent up to now is        8.7 secs

     total energy              =     -15.84434957 Ry
     estimated scf accuracy    <       0.00000001 Ry

     iteration #  8     ecut=    60.00 Ry     beta= 0.70
     Davidson diagonalization with overlap
     ethr =  1.27E-10,  avg # of iterations =  2.7

     total cpu time spent up to now is        9.2 secs

     End of self-consistent calculation

          k = 0.0000 0.0000 0.0000 (  2445 PWs)   bands (ev):

    -6.1953   5.1376   5.1376   5.1376

          k =-0.1273 0.1273-0.1273 (  2475 PWs)   bands (ev):

    -6.0065   3.5509   4.8740   4.8740

          k =-0.2547 0.2547-0.2547 (  2463 PWs)   bands (ev):

    -5.4571   1.3617   4.4352   4.4352

          k =-0.3820 0.3820-0.3820 (  2458 PWs)   bands (ev):

    -4.6399  -0.5111   4.1255   4.1255

          k = 0.5094-0.5094 0.5094 (  2452 PWs)   bands (ev):

    -4.0707  -1.4400   4.0187   4.0187

          k = 0.0000 0.2547 0.0000 (  2469 PWs)   bands (ev):

    -5.9428   3.7091   4.4090   4.4090

          k =-0.1273 0.3820-0.1273 (  2471 PWs)   bands (ev):

    -5.5099   1.9744   3.9344   3.9584

          k =-0.2547 0.5094-0.2547 (  2469 PWs)   bands (ev):

    -4.7615   0.0760   3.3964   3.6790

          k = 0.6367-0.3820 0.6367 (  2457 PWs)   bands (ev):

    -3.9854  -1.2574   2.9845   3.6940

          k = 0.5094-0.2547 0.5094 (  2445 PWs)   bands (ev):

    -4.2031  -0.9227   2.8283   3.9623

          k = 0.3820-0.1273 0.3820 (  2463 PWs)   bands (ev):

    -5.0423   0.6820   2.9924   4.4133

          k = 0.2547 0.0000 0.2547 (  2459 PWs)   bands (ev):

    -5.6959   2.4782   3.6562   4.8571

          k = 0.0000 0.5094 0.0000 (  2477 PWs)   bands (ev):

    -5.1949   1.6155   3.4082   3.4082

          k =-0.1273 0.6367-0.1273 (  2454 PWs)   bands (ev):

    -4.5406   0.3074   2.6791   3.1101

          k = 0.7641-0.2547 0.7641 (  2454 PWs)   bands (ev):

    -3.6978  -0.9991   1.8731   3.1086

          k = 0.6367-0.1273 0.6367 (  2447 PWs)   bands (ev):

    -3.5190  -1.2260   1.4563   3.3990

          k = 0.5094 0.0000 0.5094 (  2437 PWs)   bands (ev):

    -4.3143  -0.1707   1.6963   3.9095

          k = 0.0000 0.7641 0.0000 (  2450 PWs)   bands (ev):

    -3.9828  -0.4576   2.7403   2.7403

          k = 0.8914-0.1273 0.8914 (  2448 PWs)   bands (ev):

    -3.1592  -1.4619   1.9935   2.6679

          k = 0.7641 0.0000 0.7641 (  2440 PWs)   bands (ev):

    -2.7765  -1.8147   1.2121   2.9047

          k = 0.0000-1.0188 0.0000 (  2450 PWs)   bands (ev):

    -2.3691  -2.3691   2.5107   2.5107

          k =-0.2547 0.5094 0.0000 (  2460 PWs)   bands (ev):

    -4.9680   0.9344   2.6527   3.8155

          k = 0.6367-0.3820 0.8914 (  2449 PWs)   bands (ev):

    -4.1551  -0.4850   2.0614   3.3669

          k = 0.5094-0.2547 0.7641 (  2448 PWs)   bands (ev):

    -3.5710  -1.3321   1.9239   3.1624

          k = 0.7641-0.2547 1.0188 (  2435 PWs)   bands (ev):

    -3.8043  -0.6598   2.0547   2.6174

          k = 0.6367-0.1273 0.8914 (  2454 PWs)   bands (ev):

    -3.0122  -1.5471   1.4217   2.4338

          k = 0.5094-0.0000 0.7641 (  2462 PWs)   bands (ev):

    -3.3341  -1.2077   1.2707   2.7748

          k =-0.2547-1.0188 0.0000 (  2444 PWs)   bands (ev):

    -2.3055  -2.3055   2.0122   2.0122

          k =-0.5094-1.0188 0.0000 (  2468 PWs)   bands (ev):

    -2.2367  -2.2367   1.6256   1.6256

     highest occupied level (ev):     5.1376

!    total energy              =     -15.84434957 Ry
     estimated scf accuracy    <          2.2E-09 Ry

     The total energy is the sum of the following terms:
     one-electron contribution =       3.98175773 Ry
     hartree contribution      =       1.17183444 Ry
     xc contribution           =      -4.70172702 Ry
     ewald contribution        =     -16.29621472 Ry

     convergence has been achieved in   8 iterations

     Forces acting on atoms (cartesian axes, Ry/au):

     atom    1 type  1   force =     0.00000000    0.00000000    0.00000000
     atom    2 type  1   force =     0.00000000    0.00000000   -0.00000000
     The non-local contrib.  to forces
     atom    1 type  1   force =    -0.00000000   -0.00000000    0.00000000
     atom    2 type  1   force =    -0.00000000   -0.00000000    0.00000000
     The ionic contribution  to forces
     atom    1 type  1   force =     0.00000000    0.00000000    0.00000000
     atom    2 type  1   force =    -0.00000000   -0.00000000   -0.00000000
     The local contribution  to forces
     atom    1 type  1   force =     0.00000000   -0.00000000   -0.00000000
     atom    2 type  1   force =    -0.00000000   -0.00000000   -0.00000000
     The core correction contribution to forces
     atom    1 type  1   force =     0.00000000    0.00000000    0.00000000
     atom    2 type  1   force =     0.00000000    0.00000000    0.00000000
     The Hubbard contrib.    to forces
     atom    1 type  1   force =     0.00000000    0.00000000    0.00000000
     atom    2 type  1   force =     0.00000000    0.00000000    0.00000000
     The SCF correction term to forces
     atom    1 type  1   force =    -0.00000000   -0.00000000    0.00000000
     atom    2 type  1   force =     0.00000000    0.00000000   -0.00000000

     Total force =     0.000000     Total SCF correction =     0.000000


     Computing stress (Cartesian axis) and pressure

          total   stress  (Ry/bohr**3)                   (kbar)     P=      -80.46
  -0.00054694   0.00000000   0.00000000          -80.46        0.00        0.00
   0.00000000  -0.00054694  -0.00000000            0.00      -80.46       -0.00
   0.00000000  -0.00000000  -0.00054694            0.00       -0.00      -80.46

     Energy error            =      1.1E-02 Ry
     Gradient error          =      3.3E-32 Ry/Bohr
     Cell gradient error     =      8.0E+01 kbar

     number of scf cycles    =   2
     number of bfgs steps    =   1

     enthalpy           old  =     -15.8333602574 Ry
     enthalpy           new  =     -15.8443495692 Ry

     CASE: enthalpy          _new < enthalpy          _old

     new trust radius        =       0.0968344876 bohr
     new conv_thr            =            1.0E-10 Ry

     new unit-cell volume =    271.59573 a.u.^3 (    40.24633 Ang^3 )
     density =      2.31754 g/cm^3

CELL_PARAMETERS (alat= 10.77625694)
  -0.476975834  -0.000000000   0.476975834
   0.000000000   0.476975834   0.476975834
  -0.476975834   0.476975834  -0.000000000

ATOMIC_POSITIONS (alat)
Si           -0.0000000000        0.0000000000        0.0000000000
Si            0.2384879170        0.2384879170        0.2384879170



     Writing config-only to output data dir /home/paolo/project_labqsm/Silicon/SCRATCH/silicon.save/
     NEW-OLD atomic charge density approx. for the potential
     extrapolated charge    7.28466, renormalised to    8.00000

     total cpu time spent up to now is        9.8 secs

     Self-consistent Calculation

     iteration #  1     ecut=    60.00 Ry     beta= 0.70
     Davidson diagonalization with overlap
     ethr =  1.00E-06,  avg # of iterations =  6.3

     total cpu time spent up to now is       10.8 secs

     total energy              =     -15.84710949 Ry
     estimated scf accuracy    <       0.00378330 Ry

     iteration #  2     ecut=    60.00 Ry     beta= 0.70
     Davidson diagonalization with overlap
     ethr =  4.73E-05,  avg # of iterations =  3.0

     total cpu time spent up to now is       11.3 secs

     total energy              =     -15.85312568 Ry
     estimated scf accuracy    <       0.00225535 Ry

     iteration #  3     ecut=    60.00 Ry     beta= 0.70
     Davidson diagonalization with overlap
     ethr =  2.82E-05,  avg # of iterations =  1.0

     total cpu time spent up to now is       11.7 secs

     total energy              =     -15.85288399 Ry
     estimated scf accuracy    <       0.00057754 Ry

     iteration #  4     ecut=    60.00 Ry     beta= 0.70
     Davidson diagonalization with overlap
     ethr =  7.22E-06,  avg # of iterations =  2.0

     total cpu time spent up to now is       12.2 secs

     total energy              =     -15.85297723 Ry
     estimated scf accuracy    <       0.00004664 Ry

     iteration #  5     ecut=    60.00 Ry     beta= 0.70
     Davidson diagonalization with overlap
     ethr =  5.83E-07,  avg # of iterations =  1.0

     total cpu time spent up to now is       12.5 secs

     total energy              =     -15.85297317 Ry
     estimated scf accuracy    <       0.00000970 Ry

     iteration #  6     ecut=    60.00 Ry     beta= 0.70
     Davidson diagonalization with overlap
     ethr =  1.21E-07,  avg # of iterations =  2.1

     total cpu time spent up to now is       13.0 secs

     total energy              =     -15.85297476 Ry
     estimated scf accuracy    <       0.00000027 Ry

     iteration #  7     ecut=    60.00 Ry     beta= 0.70
     Davidson diagonalization with overlap
     ethr =  3.33E-09,  avg # of iterations =  2.3

     total cpu time spent up to now is       13.4 secs

     total energy              =     -15.85297480 Ry
     estimated scf accuracy    <       0.00000003 Ry

     iteration #  8     ecut=    60.00 Ry     beta= 0.70
     Davidson diagonalization with overlap
     ethr =  4.15E-10,  avg # of iterations =  1.9

     total cpu time spent up to now is       13.8 secs

     total energy              =     -15.85297480 Ry
     estimated scf accuracy    <       0.00000001 Ry

     iteration #  9     ecut=    60.00 Ry     beta= 0.70
     Davidson diagonalization with overlap
     ethr =  1.52E-10,  avg # of iterations =  2.0

     total cpu time spent up to now is       14.2 secs

     End of self-consistent calculation

          k = 0.0000 0.0000 0.0000 (  2445 PWs)   bands (ev):

    -5.9053   5.9862   5.9862   5.9862

          k =-0.1310 0.1310-0.1310 (  2475 PWs)   bands (ev):

    -5.7020   4.3920   5.6993   5.6993

          k =-0.2621 0.2621-0.2621 (  2463 PWs)   bands (ev):

    -5.1084   2.0747   5.2309   5.2309

          k =-0.3931 0.3931-0.3931 (  2458 PWs)   bands (ev):

    -4.2155   0.0608   4.9049   4.9049

          k = 0.5241-0.5241 0.5241 (  2452 PWs)   bands (ev):

    -3.5742  -0.9634   4.7933   4.7933

          k = 0.0000 0.2621 0.0000 (  2469 PWs)   bands (ev):

    -5.6335   4.6539   5.1848   5.1848

          k =-0.1310 0.3931-0.1310 (  2471 PWs)   bands (ev):

    -5.1666   2.7770   4.6749   4.7464

          k =-0.2621 0.5241-0.2621 (  2469 PWs)   bands (ev):

    -4.3535   0.7248   4.1555   4.4073

          k = 0.6552-0.3931 0.6552 (  2457 PWs)   bands (ev):

    -3.4897  -0.7383   3.7111   4.4315

          k = 0.5241-0.2621 0.5241 (  2445 PWs)   bands (ev):

    -3.7356  -0.3668   3.5298   4.7269

          k = 0.3931-0.1310 0.3931 (  2463 PWs)   bands (ev):

    -4.6592   1.3821   3.6801   5.2165

          k = 0.2621 0.0000 0.2621 (  2459 PWs)   bands (ev):

    -5.3671   3.3144   4.3616   5.6950

          k = 0.0000 0.5241 0.0000 (  2477 PWs)   bands (ev):

    -4.8278   2.4909   4.1053   4.1053

          k =-0.1310 0.6552-0.1310 (  2454 PWs)   bands (ev):

    -4.1202   1.0776   3.3210   3.7876

          k = 0.7862-0.2621 0.7862 (  2454 PWs)   bands (ev):

    -3.1946  -0.3602   2.4558   3.7906

          k = 0.6552-0.1310 0.6552 (  2447 PWs)   bands (ev):

    -2.9885  -0.6197   1.9962   4.1083

          k = 0.5241 0.0000 0.5241 (  2437 PWs)   bands (ev):

    -3.8675   0.5392   2.2349   4.6652

          k = 0.0000 0.7862 0.0000 (  2450 PWs)   bands (ev):

    -3.5207   0.2811   3.3897   3.3897

          k = 0.9172-0.1310 0.9172 (  2448 PWs)   bands (ev):

    -2.6261  -0.7965   2.5546   3.3136

          k = 0.7862 0.0000 0.7862 (  2440 PWs)   bands (ev):

    -2.1839  -1.1935   1.6830   3.5708

          k = 0.0000-1.0483 0.0000 (  2450 PWs)   bands (ev):

    -1.7786  -1.7786   3.1442   3.1442

          k =-0.2621 0.5241-0.0000 (  2460 PWs)   bands (ev):

    -4.5808   1.7224   3.2771   4.5646

          k = 0.6552-0.3931 0.9172 (  2449 PWs)   bands (ev):

    -3.6939   0.1765   2.6698   4.0633

          k = 0.5241-0.2621 0.7862 (  2448 PWs)   bands (ev):

    -3.0392  -0.7698   2.5419   3.8336

          k = 0.7862-0.2621 1.0483 (  2435 PWs)   bands (ev):

    -3.3215   0.0639   2.6280   3.2329

          k = 0.6552-0.1310 0.9172 (  2454 PWs)   bands (ev):

    -2.4468  -0.8995   1.9264   3.0312

          k = 0.5241 0.0000 0.7862 (  2462 PWs)   bands (ev):

    -2.7960  -0.5388   1.7584   3.4077

          k =-0.2621-1.0483 0.0000 (  2444 PWs)   bands (ev):

    -1.6990  -1.6990   2.5737   2.5737

          k =-0.5241-1.0483-0.0000 (  2468 PWs)   bands (ev):

    -1.6111  -1.6111   2.1340   2.1340

     highest occupied level (ev):     5.9862

!    total energy              =     -15.85297480 Ry
     estimated scf accuracy    <          4.3E-11 Ry

     The total energy is the sum of the following terms:
     one-electron contribution =       4.60803187 Ry
     hartree contribution      =       1.09903537 Ry
     xc contribution           =      -4.79184523 Ry
     ewald contribution        =     -16.76819681 Ry

     convergence has been achieved in   9 iterations

     Forces acting on atoms (cartesian axes, Ry/au):

     atom    1 type  1   force =    -0.00000000    0.00000000   -0.00000000
     atom    2 type  1   force =     0.00000000    0.00000000    0.00000000
     The non-local contrib.  to forces
     atom    1 type  1   force =     0.00000000   -0.00000000    0.00000000
     atom    2 type  1   force =    -0.00000000   -0.00000000   -0.00000000
     The ionic contribution  to forces
     atom    1 type  1   force =     0.00000000    0.00000000    0.00000000
     atom    2 type  1   force =     0.00000000    0.00000000    0.00000000
     The local contribution  to forces
     atom    1 type  1   force =     0.00000000   -0.00000000   -0.00000000
     atom    2 type  1   force =     0.00000000    0.00000000    0.00000000
     The core correction contribution to forces
     atom    1 type  1   force =     0.00000000    0.00000000    0.00000000
     atom    2 type  1   force =     0.00000000    0.00000000    0.00000000
     The Hubbard contrib.    to forces
     atom    1 type  1   force =     0.00000000    0.00000000    0.00000000
     atom    2 type  1   force =     0.00000000    0.00000000    0.00000000
     The SCF correction term to forces
     atom    1 type  1   force =     0.00000000   -0.00000000   -0.00000000
     atom    2 type  1   force =     0.00000000   -0.00000000   -0.00000000

     Total force =     0.000000     Total SCF correction =     0.000000


     Computing stress (Cartesian axis) and pressure

          total   stress  (Ry/bohr**3)                   (kbar)     P=      -19.10
  -0.00012984   0.00000000   0.00000000          -19.10        0.00        0.00
   0.00000000  -0.00012984   0.00000000            0.00      -19.10        0.00
   0.00000000   0.00000000  -0.00012984            0.00        0.00      -19.10

     Energy error            =      8.6E-03 Ry
     Gradient error          =      7.8E-32 Ry/Bohr
     Cell gradient error     =      1.9E+01 kbar

     number of scf cycles    =   3
     number of bfgs steps    =   2

     enthalpy           old  =     -15.8443495692 Ry
     enthalpy           new  =     -15.8529748012 Ry

     CASE: enthalpy          _new < enthalpy          _old

     new trust radius        =       0.0275896208 bohr
     new conv_thr            =            1.0E-10 Ry

     new unit-cell volume =    264.83244 a.u.^3 (    39.24412 Ang^3 )
     density =      2.37673 g/cm^3

CELL_PARAMETERS (alat= 10.77625694)
  -0.472983281  -0.000000000   0.472983281
   0.000000000   0.472983281   0.472983281
  -0.472983281   0.472983281  -0.000000000

ATOMIC_POSITIONS (alat)
Si           -0.0000000000        0.0000000000        0.0000000000
Si            0.2364916407        0.2364916407        0.2364916407



     Writing config-only to output data dir /home/paolo/project_labqsm/Silicon/SCRATCH/silicon.save/
     NEW-OLD atomic charge density approx. for the potential
     extrapolated charge    7.79572, renormalised to    8.00000

     total cpu time spent up to now is       14.8 secs

     Self-consistent Calculation

     iteration #  1     ecut=    60.00 Ry     beta= 0.70
     Davidson diagonalization with overlap
     ethr =  1.00E-06,  avg # of iterations =  4.3

     total cpu time spent up to now is       15.5 secs

     total energy              =     -15.85288326 Ry
     estimated scf accuracy    <       0.00024379 Ry

     iteration #  2     ecut=    60.00 Ry     beta= 0.70
     Davidson diagonalization with overlap
     ethr =  3.05E-06,  avg # of iterations =  3.2

     total cpu time spent up to now is       16.1 secs

     total energy              =     -15.85335107 Ry
     estimated scf accuracy    <       0.00019524 Ry

     iteration #  3     ecut=    60.00 Ry     beta= 0.70
     Davidson diagonalization with overlap
     ethr =  2.44E-06,  avg # of iterations =  1.0

     total cpu time spent up to now is       16.5 secs

     total energy              =     -15.85332629 Ry
     estimated scf accuracy    <       0.00005464 Ry

     iteration #  4     ecut=    60.00 Ry     beta= 0.70
     Davidson diagonalization with overlap
     ethr =  6.83E-07,  avg # of iterations =  2.0

     total cpu time spent up to now is       16.9 secs

     total energy              =     -15.85333598 Ry
     estimated scf accuracy    <       0.00000550 Ry

     iteration #  5     ecut=    60.00 Ry     beta= 0.70
     Davidson diagonalization with overlap
     ethr =  6.87E-08,  avg # of iterations =  1.1

     total cpu time spent up to now is       17.3 secs

     total energy              =     -15.85333538 Ry
     estimated scf accuracy    <       0.00000139 Ry

     iteration #  6     ecut=    60.00 Ry     beta= 0.70
     Davidson diagonalization with overlap
     ethr =  1.73E-08,  avg # of iterations =  2.0

     total cpu time spent up to now is       17.8 secs

     total energy              =     -15.85333558 Ry
     estimated scf accuracy    <       0.00000002 Ry

     iteration #  7     ecut=    60.00 Ry     beta= 0.70
     Davidson diagonalization with overlap
     ethr =  1.92E-10,  avg # of iterations =  2.7

     total cpu time spent up to now is       18.2 secs

     total energy              =     -15.85333558 Ry
     estimated scf accuracy    <          1.5E-09 Ry

     iteration #  8     ecut=    60.00 Ry     beta= 0.70
     Davidson diagonalization with overlap
     ethr =  1.84E-11,  avg # of iterations =  2.0

     total cpu time spent up to now is       18.7 secs

     total energy              =     -15.85333558 Ry
     estimated scf accuracy    <          3.1E-10 Ry

     iteration #  9     ecut=    60.00 Ry     beta= 0.70
     Davidson diagonalization with overlap
     ethr =  3.87E-12,  avg # of iterations =  2.1

     total cpu time spent up to now is       19.1 secs

     End of self-consistent calculation

          k = 0.0000 0.0000 0.0000 (  2445 PWs)   bands (ev):

    -5.8154   6.2487   6.2487   6.2487

          k =-0.1321 0.1321-0.1321 (  2475 PWs)   bands (ev):

    -5.6077   4.6463   5.9546   5.9546

          k =-0.2643 0.2643-0.2643 (  2463 PWs)   bands (ev):

    -5.0007   2.2909   5.4774   5.4774

          k =-0.3964 0.3964-0.3964 (  2458 PWs)   bands (ev):

    -4.0846   0.2346   5.1467   5.1467

          k = 0.5286-0.5286 0.5286 (  2452 PWs)   bands (ev):

    -3.4203  -0.8194   5.0338   5.0338

          k = 0.0000 0.2643 0.0000 (  2469 PWs)   bands (ev):

    -5.5377   4.9398   5.4246   5.4246

          k =-0.1321 0.3964-0.1321 (  2471 PWs)   bands (ev):

    -5.0605   3.0193   4.9041   4.9916

          k =-0.2643 0.5286-0.2643 (  2469 PWs)   bands (ev):

    -4.2276   0.9214   4.3915   4.6330

          k = 0.6607-0.3964 0.6607 (  2457 PWs)   bands (ev):

    -3.3365  -0.5815   3.9370   4.6602

          k = 0.5286-0.2643 0.5286 (  2445 PWs)   bands (ev):

    -3.5913  -0.1984   3.7479   4.9641

          k = 0.3964-0.1321 0.3964 (  2463 PWs)   bands (ev):

    -4.5410   1.5942   3.8939   5.4656

          k = 0.2643 0.0000 0.2643 (  2459 PWs)   bands (ev):

    -5.2654   3.5677   4.5799   5.9547

          k = 0.0000 0.5286 0.0000 (  2477 PWs)   bands (ev):

    -4.7145   2.7581   4.3213   4.3213

          k =-0.1321 0.6607-0.1321 (  2454 PWs)   bands (ev):

    -3.9906   1.3126   3.5206   3.9977

          k = 0.7928-0.2643 0.7928 (  2454 PWs)   bands (ev):

    -3.0395  -0.1661   2.6378   4.0022

          k = 0.6607-0.1321 0.6607 (  2447 PWs)   bands (ev):

    -2.8246  -0.4360   2.1650   4.3283

          k = 0.5286 0.0000 0.5286 (  2437 PWs)   bands (ev):

    -3.7298   0.7558   2.4022   4.8995

          k = 0.0000 0.7928 0.0000 (  2450 PWs)   bands (ev):

    -3.3785   0.5075   3.5913   3.5913

          k = 0.9250-0.1321 0.9250 (  2448 PWs)   bands (ev):

    -2.4622  -0.5922   2.7284   3.5141

          k = 0.7928 0.0000 0.7928 (  2440 PWs)   bands (ev):

    -2.0007  -1.0030   1.8285   3.7776

          k = 0.0000-1.0571 0.0000 (  2450 PWs)   bands (ev):

    -1.5973  -1.5973   3.3410   3.3410

          k =-0.2643 0.5286-0.0000 (  2460 PWs)   bands (ev):

    -4.4613   1.9623   3.4708   4.7970

          k = 0.6607-0.3964 0.9250 (  2449 PWs)   bands (ev):

    -3.5517   0.3772   2.8600   4.2789

          k = 0.5286-0.2643 0.7928 (  2448 PWs)   bands (ev):

    -2.8747  -0.6004   2.7354   4.0413

          k = 0.7928-0.2643 1.0571 (  2435 PWs)   bands (ev):

    -3.1729   0.2861   2.8059   3.4232

          k = 0.6607-0.1321 0.9250 (  2454 PWs)   bands (ev):

    -2.2723  -0.7010   2.0831   3.2160

          k = 0.5286 0.0000 0.7928 (  2462 PWs)   bands (ev):

    -2.6300  -0.3338   1.9097   3.6035

          k =-0.2643-1.0571 0.0000 (  2444 PWs)   bands (ev):

    -1.5124  -1.5124   2.7476   2.7476

          k =-0.5286-1.0571-0.0000 (  2468 PWs)   bands (ev):

    -1.4181  -1.4181   2.2910   2.2910

     highest occupied level (ev):     6.2487

!    total energy              =     -15.85333558 Ry
     estimated scf accuracy    <          1.7E-11 Ry

     The total energy is the sum of the following terms:
     one-electron contribution =       4.79744528 Ry
     hartree contribution      =       1.07815530 Ry
     xc contribution           =      -4.81919543 Ry
     ewald contribution        =     -16.90974073 Ry

     convergence has been achieved in   9 iterations

     Forces acting on atoms (cartesian axes, Ry/au):

     atom    1 type  1   force =     0.00000000   -0.00000000    0.00000000
     atom    2 type  1   force =     0.00000000    0.00000000    0.00000000
     The non-local contrib.  to forces
     atom    1 type  1   force =     0.00000000   -0.00000000    0.00000000
     atom    2 type  1   force =     0.00000000    0.00000000    0.00000000
     The ionic contribution  to forces
     atom    1 type  1   force =     0.00000000    0.00000000    0.00000000
     atom    2 type  1   force =    -0.00000000   -0.00000000    0.00000000
     The local contribution  to forces
     atom    1 type  1   force =     0.00000000   -0.00000000   -0.00000000
     atom    2 type  1   force =     0.00000000    0.00000000    0.00000000
     The core correction contribution to forces
     atom    1 type  1   force =     0.00000000    0.00000000    0.00000000
     atom    2 type  1   force =     0.00000000    0.00000000    0.00000000
     The Hubbard contrib.    to forces
     atom    1 type  1   force =     0.00000000    0.00000000    0.00000000
     atom    2 type  1   force =     0.00000000    0.00000000    0.00000000
     The SCF correction term to forces
     atom    1 type  1   force =    -0.00000000   -0.00000000    0.00000000
     atom    2 type  1   force =     0.00000000    0.00000000   -0.00000000

     Total force =     0.000000     Total SCF correction =     0.000000


     Computing stress (Cartesian axis) and pressure

          total   stress  (Ry/bohr**3)                   (kbar)     P=        3.91
   0.00002657  -0.00000000   0.00000000            3.91       -0.00        0.00
  -0.00000000   0.00002657   0.00000000           -0.00        3.91        0.00
  -0.00000000   0.00000000   0.00002657           -0.00        0.00        3.91

     Energy error            =      3.6E-04 Ry
     Gradient error          =      1.0E-32 Ry/Bohr
     Cell gradient error     =      3.9E+00 kbar

     number of scf cycles    =   4
     number of bfgs steps    =   3

     enthalpy           old  =     -15.8529748012 Ry
     enthalpy           new  =     -15.8533355835 Ry

     CASE: enthalpy          _new < enthalpy          _old

     new trust radius        =       0.0046025710 bohr
     new conv_thr            =            1.0E-10 Ry

     new unit-cell volume =    265.95754 a.u.^3 (    39.41084 Ang^3 )
     density =      2.36667 g/cm^3

CELL_PARAMETERS (alat= 10.77625694)
  -0.473652134  -0.000000000   0.473652134
   0.000000000   0.473652134   0.473652134
  -0.473652134   0.473652134  -0.000000000

ATOMIC_POSITIONS (alat)
Si           -0.0000000000        0.0000000000        0.0000000000
Si            0.2368260672        0.2368260672        0.2368260672



     Writing config-only to output data dir /home/paolo/project_labqsm/Silicon/SCRATCH/silicon.save/
     NEW-OLD atomic charge density approx. for the potential
     extrapolated charge    8.03384, renormalised to    8.00000

     total cpu time spent up to now is       19.8 secs

     Self-consistent Calculation

     iteration #  1     ecut=    60.00 Ry     beta= 0.70
     Davidson diagonalization with overlap
     ethr =  1.00E-06,  avg # of iterations =  2.0

     Threshold (ethr) on eigenvalues was too large:
     Diagonalizing with lowered threshold

     Davidson diagonalization with overlap
     ethr =  7.50E-08,  avg # of iterations =  1.4

     total cpu time spent up to now is       20.6 secs

     total energy              =     -15.85333773 Ry
     estimated scf accuracy    <       0.00000610 Ry

     iteration #  2     ecut=    60.00 Ry     beta= 0.70
     Davidson diagonalization with overlap
     ethr =  7.62E-08,  avg # of iterations =  3.3

     total cpu time spent up to now is       21.2 secs

     total energy              =     -15.85335043 Ry
     estimated scf accuracy    <       0.00000541 Ry

     iteration #  3     ecut=    60.00 Ry     beta= 0.70
     Davidson diagonalization with overlap
     ethr =  6.77E-08,  avg # of iterations =  1.0

     total cpu time spent up to now is       21.5 secs

     total energy              =     -15.85334970 Ry
     estimated scf accuracy    <       0.00000158 Ry

     iteration #  4     ecut=    60.00 Ry     beta= 0.70
     Davidson diagonalization with overlap
     ethr =  1.97E-08,  avg # of iterations =  2.0

     total cpu time spent up to now is       22.0 secs

     total energy              =     -15.85334998 Ry
     estimated scf accuracy    <       0.00000017 Ry

     iteration #  5     ecut=    60.00 Ry     beta= 0.70
     Davidson diagonalization with overlap
     ethr =  2.15E-09,  avg # of iterations =  1.1

     total cpu time spent up to now is       22.4 secs

     total energy              =     -15.85334996 Ry
     estimated scf accuracy    <       0.00000005 Ry

     iteration #  6     ecut=    60.00 Ry     beta= 0.70
     Davidson diagonalization with overlap
     ethr =  5.72E-10,  avg # of iterations =  2.0

     total cpu time spent up to now is       22.9 secs

     total energy              =     -15.85334996 Ry
     estimated scf accuracy    <          1.9E-09 Ry

     iteration #  7     ecut=    60.00 Ry     beta= 0.70
     Davidson diagonalization with overlap
     ethr =  2.43E-11,  avg # of iterations =  1.7

     total cpu time spent up to now is       23.2 secs

     End of self-consistent calculation

          k = 0.0000 0.0000 0.0000 (  2445 PWs)   bands (ev):

    -5.8306   6.2041   6.2041   6.2041

          k =-0.1320 0.1320-0.1320 (  2475 PWs)   bands (ev):

    -5.6237   4.6033   5.9113   5.9113

          k =-0.2639 0.2639-0.2639 (  2463 PWs)   bands (ev):

    -5.0190   2.2544   5.4355   5.4355

          k =-0.3959 0.3959-0.3959 (  2458 PWs)   bands (ev):

    -4.1068   0.2052   5.1057   5.1057

          k = 0.5278-0.5278 0.5278 (  2452 PWs)   bands (ev):

    -3.4464  -0.8438   4.9929   4.9929

          k = 0.0000 0.2639 0.0000 (  2469 PWs)   bands (ev):

    -5.5540   4.8914   5.3839   5.3839

          k =-0.1320 0.3959-0.1320 (  2471 PWs)   bands (ev):

    -5.0785   2.9783   4.8652   4.9500

          k =-0.2639 0.5278-0.2639 (  2469 PWs)   bands (ev):

    -4.2490   0.8882   4.3514   4.5947

          k = 0.6598-0.3959 0.6598 (  2457 PWs)   bands (ev):

    -3.3625  -0.6080   3.8987   4.6214

          k = 0.5278-0.2639 0.5278 (  2445 PWs)   bands (ev):

    -3.6158  -0.2269   3.7109   4.9238

          k = 0.3959-0.1320 0.3959 (  2463 PWs)   bands (ev):

    -4.5610   1.5583   3.8575   5.4233

          k = 0.2639 0.0000 0.2639 (  2459 PWs)   bands (ev):

    -5.2826   3.5248   4.5428   5.9106

          k = 0.0000 0.5278 0.0000 (  2477 PWs)   bands (ev):

    -4.7338   2.7129   4.2846   4.2846

          k =-0.1320 0.6598-0.1320 (  2454 PWs)   bands (ev):

    -4.0126   1.2728   3.4866   3.9620

          k = 0.7917-0.2639 0.7917 (  2454 PWs)   bands (ev):

    -3.0658  -0.1989   2.6069   3.9662

          k = 0.6598-0.1320 0.6598 (  2447 PWs)   bands (ev):

    -2.8524  -0.4671   2.1363   4.2909

          k = 0.5278 0.0000 0.5278 (  2437 PWs)   bands (ev):

    -3.7531   0.7192   2.3738   4.8597

          k = 0.0000 0.7917 0.0000 (  2450 PWs)   bands (ev):

    -3.4026   0.4691   3.5571   3.5571

          k = 0.9237-0.1320 0.9237 (  2448 PWs)   bands (ev):

    -2.4900  -0.6268   2.6989   3.4800

          k = 0.7917 0.0000 0.7917 (  2440 PWs)   bands (ev):

    -2.0318  -1.0353   1.8038   3.7425

          k = 0.0000-1.0556 0.0000 (  2450 PWs)   bands (ev):

    -1.6280  -1.6280   3.3076   3.3076

          k =-0.2639 0.5278-0.0000 (  2460 PWs)   bands (ev):

    -4.4816   1.9217   3.4379   4.7575

          k = 0.6598-0.3959 0.9237 (  2449 PWs)   bands (ev):

    -3.5758   0.3433   2.8276   4.2423

          k = 0.5278-0.2639 0.7917 (  2448 PWs)   bands (ev):

    -2.9026  -0.6290   2.7025   4.0060

          k = 0.7917-0.2639 1.0556 (  2435 PWs)   bands (ev):

    -3.1981   0.2484   2.7757   3.3909

          k = 0.6598-0.1320 0.9237 (  2454 PWs)   bands (ev):

    -2.3019  -0.7347   2.0565   3.1846

          k = 0.5278 0.0000 0.7917 (  2462 PWs)   bands (ev):

    -2.6582  -0.3685   1.8840   3.5703

          k =-0.2639-1.0556 0.0000 (  2444 PWs)   bands (ev):

    -1.5441  -1.5441   2.7181   2.7181

          k =-0.5278-1.0556 0.0000 (  2468 PWs)   bands (ev):

    -1.4509  -1.4509   2.2643   2.2643

     highest occupied level (ev):     6.2041

!    total energy              =     -15.85334996 Ry
     estimated scf accuracy    <          6.8E-11 Ry

     The total energy is the sum of the following terms:
     one-electron contribution =       4.76543227 Ry
     hartree contribution      =       1.08165337 Ry
     xc contribution           =      -4.81457343 Ry
     ewald contribution        =     -16.88586217 Ry

     convergence has been achieved in   7 iterations

     Forces acting on atoms (cartesian axes, Ry/au):

     atom    1 type  1   force =    -0.00000000   -0.00000000   -0.00000000
     atom    2 type  1   force =    -0.00000000   -0.00000000    0.00000000
     The non-local contrib.  to forces
     atom    1 type  1   force =     0.00000000    0.00000000    0.00000000
     atom    2 type  1   force =     0.00000000    0.00000000    0.00000000
     The ionic contribution  to forces
     atom    1 type  1   force =     0.00000000    0.00000000    0.00000000
     atom    2 type  1   force =     0.00000000   -0.00000000   -0.00000000
     The local contribution  to forces
     atom    1 type  1   force =     0.00000000   -0.00000000   -0.00000000
     atom    2 type  1   force =     0.00000000   -0.00000000    0.00000000
     The core correction contribution to forces
     atom    1 type  1   force =     0.00000000    0.00000000    0.00000000
     atom    2 type  1   force =     0.00000000    0.00000000    0.00000000
     The Hubbard contrib.    to forces
     atom    1 type  1   force =     0.00000000    0.00000000    0.00000000
     atom    2 type  1   force =     0.00000000    0.00000000    0.00000000
     The SCF correction term to forces
     atom    1 type  1   force =    -0.00000000    0.00000000    0.00000000
     atom    2 type  1   force =    -0.00000000   -0.00000000    0.00000000

     Total force =     0.000000     Total SCF correction =     0.000000


     Computing stress (Cartesian axis) and pressure

          total   stress  (Ry/bohr**3)                   (kbar)     P=       -0.13
  -0.00000088  -0.00000000   0.00000000           -0.13       -0.00        0.00
  -0.00000000  -0.00000088  -0.00000000           -0.00       -0.13       -0.00
   0.00000000  -0.00000000  -0.00000088            0.00       -0.00       -0.13

     Energy error            =      1.4E-05 Ry
     Gradient error          =      2.6E-32 Ry/Bohr
     Cell gradient error     =      1.3E-01 kbar

     number of scf cycles    =   5
     number of bfgs steps    =   4

     enthalpy           old  =     -15.8533355835 Ry
     enthalpy           new  =     -15.8533499645 Ry

     CASE: enthalpy          _new < enthalpy          _old

     new trust radius        =       0.0001474294 bohr
     new conv_thr            =            1.0E-10 Ry

     new unit-cell volume =    265.92148 a.u.^3 (    39.40550 Ang^3 )
     density =      2.36699 g/cm^3

CELL_PARAMETERS (alat= 10.77625694)
  -0.473630725  -0.000000000   0.473630725
   0.000000000   0.473630725   0.473630725
  -0.473630725   0.473630725  -0.000000000

ATOMIC_POSITIONS (alat)
Si           -0.0000000000        0.0000000000       -0.0000000000
Si            0.2368153624        0.2368153624        0.2368153624



     Writing config-only to output data dir /home/paolo/project_labqsm/Silicon/SCRATCH/silicon.save/
     NEW-OLD atomic charge density approx. for the potential
     extrapolated charge    7.99892, renormalised to    8.00000

     total cpu time spent up to now is       23.9 secs

     Self-consistent Calculation

     iteration #  1     ecut=    60.00 Ry     beta= 0.70
     Davidson diagonalization with overlap
     ethr =  1.00E-06,  avg # of iterations =  1.0

     Threshold (ethr) on eigenvalues was too large:
     Diagonalizing with lowered threshold

     Davidson diagonalization with overlap
     ethr =  7.13E-11,  avg # of iterations =  2.4

     total cpu time spent up to now is       24.7 secs

     total energy              =     -15.85334997 Ry
     estimated scf accuracy    <          5.8E-09 Ry

     iteration #  2     ecut=    60.00 Ry     beta= 0.70
     Davidson diagonalization with overlap
     ethr =  7.29E-11,  avg # of iterations =  3.3

     total cpu time spent up to now is       25.3 secs

     total energy              =     -15.85334998 Ry
     estimated scf accuracy    <          5.5E-09 Ry

     iteration #  3     ecut=    60.00 Ry     beta= 0.70
     Davidson diagonalization with overlap
     ethr =  6.93E-11,  avg # of iterations =  1.0

     total cpu time spent up to now is       25.6 secs

     total energy              =     -15.85334998 Ry
     estimated scf accuracy    <          1.7E-09 Ry

     iteration #  4     ecut=    60.00 Ry     beta= 0.70
     Davidson diagonalization with overlap
     ethr =  2.08E-11,  avg # of iterations =  2.0

     total cpu time spent up to now is       26.1 secs

     total energy              =     -15.85334998 Ry
     estimated scf accuracy    <          1.7E-10 Ry

     iteration #  5     ecut=    60.00 Ry     beta= 0.70
     Davidson diagonalization with overlap
     ethr =  2.14E-12,  avg # of iterations =  1.1

     total cpu time spent up to now is       26.5 secs

     End of self-consistent calculation

          k = 0.0000 0.0000 0.0000 (  2445 PWs)   bands (ev):

    -5.8302   6.2056   6.2056   6.2056

          k =-0.1320 0.1320-0.1320 (  2475 PWs)   bands (ev):

    -5.6232   4.6046   5.9127   5.9127

          k =-0.2639 0.2639-0.2639 (  2463 PWs)   bands (ev):

    -5.0184   2.2555   5.4369   5.4369

          k =-0.3959 0.3959-0.3959 (  2458 PWs)   bands (ev):

    -4.1061   0.2062   5.1070   5.1070

          k = 0.5278-0.5278 0.5278 (  2452 PWs)   bands (ev):

    -3.4456  -0.8430   4.9943   4.9943

          k = 0.0000 0.2639 0.0000 (  2469 PWs)   bands (ev):

    -5.5535   4.8930   5.3852   5.3852

          k =-0.1320 0.3959-0.1320 (  2471 PWs)   bands (ev):

    -5.0779   2.9796   4.8665   4.9513

          k =-0.2639 0.5278-0.2639 (  2469 PWs)   bands (ev):

    -4.2483   0.8892   4.3527   4.5959

          k = 0.6598-0.3959 0.6598 (  2457 PWs)   bands (ev):

    -3.3616  -0.6071   3.8999   4.6226

          k = 0.5278-0.2639 0.5278 (  2445 PWs)   bands (ev):

    -3.6150  -0.2260   3.7120   4.9251

          k = 0.3959-0.1320 0.3959 (  2463 PWs)   bands (ev):

    -4.5604   1.5594   3.8587   5.4247

          k = 0.2639 0.0000 0.2639 (  2459 PWs)   bands (ev):

    -5.2821   3.5262   4.5440   5.9120

          k = 0.0000 0.5278 0.0000 (  2477 PWs)   bands (ev):

    -4.7332   2.7143   4.2858   4.2858

          k =-0.1320 0.6598-0.1320 (  2454 PWs)   bands (ev):

    -4.0119   1.2741   3.4877   3.9632

          k = 0.7918-0.2639 0.7918 (  2454 PWs)   bands (ev):

    -3.0649  -0.1979   2.6079   3.9674

          k = 0.6598-0.1320 0.6598 (  2447 PWs)   bands (ev):

    -2.8515  -0.4661   2.1372   4.2921

          k = 0.5278 0.0000 0.5278 (  2437 PWs)   bands (ev):

    -3.7524   0.7203   2.3747   4.8610

          k = 0.0000 0.7918 0.0000 (  2450 PWs)   bands (ev):

    -3.4018   0.4704   3.5582   3.5582

          k = 0.9237-0.1320 0.9237 (  2448 PWs)   bands (ev):

    -2.4891  -0.6257   2.6999   3.4811

          k = 0.7918 0.0000 0.7918 (  2440 PWs)   bands (ev):

    -2.0308  -1.0342   1.8046   3.7436

          k = 0.0000-1.0557 0.0000 (  2450 PWs)   bands (ev):

    -1.6270  -1.6270   3.3087   3.3087

          k =-0.2639 0.5278-0.0000 (  2460 PWs)   bands (ev):

    -4.4810   1.9230   3.4390   4.7588

          k = 0.6598-0.3959 0.9237 (  2449 PWs)   bands (ev):

    -3.5751   0.3444   2.8286   4.2435

          k = 0.5278-0.2639 0.7918 (  2448 PWs)   bands (ev):

    -2.9017  -0.6281   2.7036   4.0072

          k = 0.7918-0.2639 1.0557 (  2435 PWs)   bands (ev):

    -3.1973   0.2497   2.7767   3.3920

          k = 0.6598-0.1320 0.9237 (  2454 PWs)   bands (ev):

    -2.3010  -0.7336   2.0573   3.1856

          k = 0.5278 0.0000 0.7918 (  2462 PWs)   bands (ev):

    -2.6573  -0.3674   1.8848   3.5714

          k =-0.2639-1.0557 0.0000 (  2444 PWs)   bands (ev):

    -1.5431  -1.5431   2.7190   2.7190

          k =-0.5278-1.0557 0.0000 (  2468 PWs)   bands (ev):

    -1.4498  -1.4498   2.2652   2.2652

     highest occupied level (ev):     6.2056

!    total energy              =     -15.85334998 Ry
     estimated scf accuracy    <          4.5E-11 Ry

     The total energy is the sum of the following terms:
     one-electron contribution =       4.76645581 Ry
     hartree contribution      =       1.08154051 Ry
     xc contribution           =      -4.81472083 Ry
     ewald contribution        =     -16.88662546 Ry

     convergence has been achieved in   5 iterations

     Forces acting on atoms (cartesian axes, Ry/au):

     atom    1 type  1   force =     0.00000000    0.00000000    0.00000000
     atom    2 type  1   force =    -0.00000000   -0.00000000   -0.00000000
     The non-local contrib.  to forces
     atom    1 type  1   force =    -0.00000000   -0.00000000    0.00000000
     atom    2 type  1   force =    -0.00000000    0.00000000   -0.00000000
     The ionic contribution  to forces
     atom    1 type  1   force =     0.00000000    0.00000000    0.00000000
     atom    2 type  1   force =    -0.00000000   -0.00000000   -0.00000000
     The local contribution  to forces
     atom    1 type  1   force =     0.00000000   -0.00000000   -0.00000000
     atom    2 type  1   force =     0.00000000   -0.00000000   -0.00000000
     The core correction contribution to forces
     atom    1 type  1   force =     0.00000000    0.00000000    0.00000000
     atom    2 type  1   force =     0.00000000    0.00000000    0.00000000
     The Hubbard contrib.    to forces
     atom    1 type  1   force =     0.00000000    0.00000000    0.00000000
     atom    2 type  1   force =     0.00000000    0.00000000    0.00000000
     The SCF correction term to forces
     atom    1 type  1   force =     0.00000000   -0.00000000   -0.00000000
     atom    2 type  1   force =    -0.00000000    0.00000000    0.00000000

     Total force =     0.000000     Total SCF correction =     0.000000


     Computing stress (Cartesian axis) and pressure

          total   stress  (Ry/bohr**3)                   (kbar)     P=       -0.00
  -0.00000001   0.00000000  -0.00000000           -0.00        0.00       -0.00
   0.00000000  -0.00000001   0.00000000            0.00       -0.00        0.00
  -0.00000000   0.00000000  -0.00000001           -0.00        0.00       -0.00

     Energy error            =      1.7E-08 Ry
     Gradient error          =      4.3E-32 Ry/Bohr
     Cell gradient error     =      1.4E-03 kbar

     bfgs converged in   6 scf cycles and   5 bfgs steps
     (criteria: energy <  1.0E-05 Ry, force <  1.0E-04 Ry/Bohr, cell <  5.0E-01 kbar)

     End of BFGS Geometry Optimization

     Final enthalpy           =     -15.8533499813 Ry

     File /home/paolo/project_labqsm/Silicon/SCRATCH/silicon.bfgs deleted, as requested
Begin final coordinates
     new unit-cell volume =    265.92148 a.u.^3 (    39.40550 Ang^3 )
     density =      2.36699 g/cm^3

CELL_PARAMETERS (alat= 10.77625694)
  -0.473630725  -0.000000000   0.473630725
   0.000000000   0.473630725   0.473630725
  -0.473630725   0.473630725  -0.000000000

ATOMIC_POSITIONS (alat)
Si           -0.0000000000        0.0000000000       -0.0000000000
Si            0.2368153624        0.2368153624        0.2368153624
End final coordinates



     Writing config-only to output data dir /home/paolo/project_labqsm/Silicon/SCRATCH/silicon.save/

     Final scf calculation at the relaxed structure.
     The G-vectors are recalculated for the final unit cell
     Results may differ from those at the preceding step.

     G-vector sticks info
     --------------------
     sticks:   dense  smooth     PW     G-vecs:    dense   smooth      PW
     Sum         859     859    253                16625    16625    2741

     Using Slab Decomposition



     bravais-lattice index     =            2
     lattice parameter (alat)  =      10.7763  a.u.
     unit-cell volume          =     265.9215 (a.u.)^3
     number of atoms/cell      =            2
     number of atomic types    =            1
     number of electrons       =         8.00
     number of Kohn-Sham states=            4
     kinetic-energy cutoff     =      60.0000  Ry
     charge density cutoff     =     240.0000  Ry
     scf convergence threshold =      1.0E-10
     mixing beta               =       0.7000
     number of iterations used =            8  plain     mixing
     press convergence thresh. =      5.0E-01
     Exchange-correlation=  SLA  PZ   NOGX NOGC
                           (   1   1   0   0   0   0   0)

     celldm(1)=  10.776257  celldm(2)=   0.000000  celldm(3)=   0.000000
     celldm(4)=   0.000000  celldm(5)=   0.000000  celldm(6)=   0.000000

     crystal axes: (cart. coord. in units of alat)
               a(1) = (  -0.473631  -0.000000   0.473631 )  
               a(2) = (   0.000000   0.473631   0.473631 )  
               a(3) = (  -0.473631   0.473631  -0.000000 )  

     reciprocal axes: (cart. coord. in units 2 pi/alat)
               b(1) = ( -1.055675 -1.055675  1.055675 )  
               b(2) = (  1.055675  1.055675  1.055675 )  
               b(3) = ( -1.055675  1.055675 -1.055675 )  


     PseudoPot. # 1 for Si read from file:
     /home/paolo/project_labqsm/pseudopotentials/Si.pz-vbc.UPF
     MD5 check sum: dc3b11d017da532b29132e08c0a6883c
     Pseudo is Norm-conserving, Zval =  4.0
     Generated by new atomic code, or converted to UPF format
     Using radial grid of  431 points,  2 beta functions with: 
                l(1) =   0
                l(2) =   1

     atomic species   valence    mass     pseudopotential
        Si             4.00    28.08500     Si( 1.00)

     48 Sym. Ops., with inversion, found (24 have fractional translation)



   Cartesian axes

     site n.     atom                  positions (alat units)
         1           Si  tau(   1) = (  -0.0000000   0.0000000  -0.0000000  )
         2           Si  tau(   2) = (   0.2368154   0.2368154   0.2368154  )

     number of k points=    29
                       cart. coord. in units 2pi/alat
        k(    1) = (   0.0000000   0.0000000   0.0000000), wk =   0.0039062
        k(    2) = (  -0.1319593   0.1319593  -0.1319593), wk =   0.0312500
        k(    3) = (  -0.2639187   0.2639187  -0.2639187), wk =   0.0312500
        k(    4) = (  -0.3958780   0.3958780  -0.3958780), wk =   0.0312500
        k(    5) = (   0.5278374  -0.5278374   0.5278374), wk =   0.0156250
        k(    6) = (   0.0000000   0.2639187   0.0000000), wk =   0.0234375
        k(    7) = (  -0.1319593   0.3958780  -0.1319593), wk =   0.0937500
        k(    8) = (  -0.2639187   0.5278374  -0.2639187), wk =   0.0937500
        k(    9) = (   0.6597967  -0.3958780   0.6597967), wk =   0.0937500
        k(   10) = (   0.5278374  -0.2639187   0.5278374), wk =   0.0937500
        k(   11) = (   0.3958780  -0.1319593   0.3958780), wk =   0.0937500
        k(   12) = (   0.2639187   0.0000000   0.2639187), wk =   0.0468750
        k(   13) = (   0.0000000   0.5278374   0.0000000), wk =   0.0234375
        k(   14) = (  -0.1319593   0.6597967  -0.1319593), wk =   0.0937500
        k(   15) = (   0.7917561  -0.2639187   0.7917561), wk =   0.0937500
        k(   16) = (   0.6597967  -0.1319593   0.6597967), wk =   0.0937500
        k(   17) = (   0.5278374   0.0000000   0.5278374), wk =   0.0468750
        k(   18) = (   0.0000000   0.7917561   0.0000000), wk =   0.0234375
        k(   19) = (   0.9237154  -0.1319593   0.9237154), wk =   0.0937500
        k(   20) = (   0.7917561   0.0000000   0.7917561), wk =   0.0468750
        k(   21) = (   0.0000000  -1.0556748   0.0000000), wk =   0.0117188
        k(   22) = (  -0.2639187   0.5278374  -0.0000000), wk =   0.0937500
        k(   23) = (   0.6597967  -0.3958780   0.9237154), wk =   0.1875000
        k(   24) = (   0.5278374  -0.2639187   0.7917561), wk =   0.0937500
        k(   25) = (   0.7917561  -0.2639187   1.0556748), wk =   0.0937500
        k(   26) = (   0.6597967  -0.1319593   0.9237154), wk =   0.1875000
        k(   27) = (   0.5278374   0.0000000   0.7917561), wk =   0.0937500
        k(   28) = (  -0.2639187  -1.0556748   0.0000000), wk =   0.0468750
        k(   29) = (  -0.5278374  -1.0556748   0.0000000), wk =   0.0234375

     Dense  grid:    16625 G-vectors     FFT dimensions: (  36,  36,  36)

     Estimated max dynamical RAM per process >      15.07 MB

     Initial potential from superposition of free atoms

     starting charge       7.9990, renormalised to       8.0000
     Starting wfcs are    8 randomized atomic wfcs

     total cpu time spent up to now is       27.2 secs

     Self-consistent Calculation

     iteration #  1     ecut=    60.00 Ry     beta= 0.70
     Davidson diagonalization with overlap
     ethr =  1.00E-06,  avg # of iterations =  8.2

     total cpu time spent up to now is       28.0 secs

     total energy              =     -15.84950470 Ry
     estimated scf accuracy    <       0.06300097 Ry

     iteration #  2     ecut=    60.00 Ry     beta= 0.70
     Davidson diagonalization with overlap
     ethr =  7.88E-04,  avg # of iterations =  1.0

     total cpu time spent up to now is       28.3 secs

     total energy              =     -15.85283797 Ry
     estimated scf accuracy    <       0.00209727 Ry

     iteration #  3     ecut=    60.00 Ry     beta= 0.70
     Davidson diagonalization with overlap
     ethr =  2.62E-05,  avg # of iterations =  2.3

     total cpu time spent up to now is       28.6 secs

     total energy              =     -15.85332233 Ry
     estimated scf accuracy    <       0.00005515 Ry

     iteration #  4     ecut=    60.00 Ry     beta= 0.70
     Davidson diagonalization with overlap
     ethr =  6.89E-07,  avg # of iterations =  2.6

     total cpu time spent up to now is       28.9 secs

     total energy              =     -15.85334277 Ry
     estimated scf accuracy    <       0.00000069 Ry

     iteration #  5     ecut=    60.00 Ry     beta= 0.70
     Davidson diagonalization with overlap
     ethr =  8.61E-09,  avg # of iterations =  4.3

     total cpu time spent up to now is       29.3 secs

     total energy              =     -15.85334361 Ry
     estimated scf accuracy    <       0.00000008 Ry

     iteration #  6     ecut=    60.00 Ry     beta= 0.70
     Davidson diagonalization with overlap
     ethr =  9.42E-10,  avg # of iterations =  2.1

     total cpu time spent up to now is       29.6 secs

     total energy              =     -15.85334362 Ry
     estimated scf accuracy    <          1.2E-09 Ry

     iteration #  7     ecut=    60.00 Ry     beta= 0.70
     Davidson diagonalization with overlap
     ethr =  1.49E-11,  avg # of iterations =  3.9

     total cpu time spent up to now is       30.0 secs

     End of self-consistent calculation

          k = 0.0000 0.0000 0.0000 (  2085 PWs)   bands (ev):

    -5.8301   6.2056   6.2056   6.2056

          k =-0.1320 0.1320-0.1320 (  2088 PWs)   bands (ev):

    -5.6231   4.6047   5.9127   5.9127

          k =-0.2639 0.2639-0.2639 (  2085 PWs)   bands (ev):

    -5.0183   2.2556   5.4369   5.4369

          k =-0.3959 0.3959-0.3959 (  2072 PWs)   bands (ev):

    -4.1061   0.2062   5.1070   5.1070

          k = 0.5278-0.5278 0.5278 (  2060 PWs)   bands (ev):

    -3.4455  -0.8429   4.9943   4.9943

          k = 0.0000 0.2639 0.0000 (  2077 PWs)   bands (ev):

    -5.5535   4.8930   5.3852   5.3852

          k =-0.1320 0.3959-0.1320 (  2071 PWs)   bands (ev):

    -5.0779   2.9797   4.8665   4.9513

          k =-0.2639 0.5278-0.2639 (  2072 PWs)   bands (ev):

    -4.2483   0.8893   4.3527   4.5960

          k = 0.6598-0.3959 0.6598 (  2082 PWs)   bands (ev):

    -3.3616  -0.6071   3.8999   4.6226

          k = 0.5278-0.2639 0.5278 (  2083 PWs)   bands (ev):

    -3.6150  -0.2260   3.7121   4.9251

          k = 0.3959-0.1320 0.3959 (  2083 PWs)   bands (ev):

    -4.5604   1.5595   3.8587   5.4247

          k = 0.2639 0.0000 0.2639 (  2079 PWs)   bands (ev):

    -5.2821   3.5262   4.5440   5.9121

          k = 0.0000 0.5278 0.0000 (  2085 PWs)   bands (ev):

    -4.7331   2.7143   4.2858   4.2858

          k =-0.1320 0.6598-0.1320 (  2081 PWs)   bands (ev):

    -4.0119   1.2741   3.4877   3.9632

          k = 0.7918-0.2639 0.7918 (  2092 PWs)   bands (ev):

    -3.0649  -0.1978   2.6079   3.9674

          k = 0.6598-0.1320 0.6598 (  2090 PWs)   bands (ev):

    -2.8515  -0.4660   2.1372   4.2922

          k = 0.5278 0.0000 0.5278 (  2085 PWs)   bands (ev):

    -3.7523   0.7204   2.3747   4.8610

          k = 0.0000 0.7918 0.0000 (  2084 PWs)   bands (ev):

    -3.4018   0.4704   3.5582   3.5582

          k = 0.9237-0.1320 0.9237 (  2095 PWs)   bands (ev):

    -2.4891  -0.6257   2.6999   3.4811

          k = 0.7918 0.0000 0.7918 (  2097 PWs)   bands (ev):

    -2.0308  -1.0342   1.8046   3.7436

          k = 0.0000-1.0557 0.0000 (  2100 PWs)   bands (ev):

    -1.6270  -1.6270   3.3087   3.3087

          k =-0.2639 0.5278-0.0000 (  2078 PWs)   bands (ev):

    -4.4809   1.9230   3.4390   4.7588

          k = 0.6598-0.3959 0.9237 (  2086 PWs)   bands (ev):

    -3.5750   0.3444   2.8287   4.2435

          k = 0.5278-0.2639 0.7918 (  2092 PWs)   bands (ev):

    -2.9017  -0.6280   2.7036   4.0072

          k = 0.7918-0.2639 1.0557 (  2085 PWs)   bands (ev):

    -3.1973   0.2497   2.7767   3.3920

          k = 0.6598-0.1320 0.9237 (  2094 PWs)   bands (ev):

    -2.3009  -0.7335   2.0573   3.1856

          k = 0.5278 0.0000 0.7918 (  2095 PWs)   bands (ev):

    -2.6573  -0.3674   1.8849   3.5714

          k =-0.2639-1.0557 0.0000 (  2098 PWs)   bands (ev):

    -1.5430  -1.5430   2.7190   2.7190

          k =-0.5278-1.0557 0.0000 (  2120 PWs)   bands (ev):

    -1.4498  -1.4498   2.2652   2.2652

     highest occupied level (ev):     6.2056

!    total energy              =     -15.85334362 Ry
     estimated scf accuracy    <          6.4E-12 Ry

     The total energy is the sum of the following terms:
     one-electron contribution =       4.76646878 Ry
     hartree contribution      =       1.08153339 Ry
     xc contribution           =      -4.81472033 Ry
     ewald contribution        =     -16.88662547 Ry

     convergence has been achieved in   7 iterations

     Forces acting on atoms (cartesian axes, Ry/au):

     atom    1 type  1   force =     0.00000000    0.00000000    0.00000000
     atom    2 type  1   force =     0.00000000    0.00000000    0.00000000
     The non-local contrib.  to forces
     atom    1 type  1   force =     0.00000000   -0.00000000    0.00000000
     atom    2 type  1   force =    -0.00000000    0.00000000    0.00000000
     The ionic contribution  to forces
     atom    1 type  1   force =     0.00000000    0.00000000    0.00000000
     atom    2 type  1   force =     0.00000000   -0.00000000   -0.00000000
     The local contribution  to forces
     atom    1 type  1   force =     0.00000000   -0.00000000   -0.00000000
     atom    2 type  1   force =     0.00000000    0.00000000    0.00000000
     The core correction contribution to forces
     atom    1 type  1   force =     0.00000000    0.00000000    0.00000000
     atom    2 type  1   force =     0.00000000    0.00000000    0.00000000
     The Hubbard contrib.    to forces
     atom    1 type  1   force =     0.00000000    0.00000000    0.00000000
     atom    2 type  1   force =     0.00000000    0.00000000    0.00000000
     The SCF correction term to forces
     atom    1 type  1   force =    -0.00000000    0.00000000    0.00000000
     atom    2 type  1   force =    -0.00000000   -0.00000000    0.00000000

     Total force =     0.000000     Total SCF correction =     0.000000


     Computing stress (Cartesian axis) and pressure

          total   stress  (Ry/bohr**3)                   (kbar)     P=       -0.04
  -0.00000027   0.00000000   0.00000000           -0.04        0.00        0.00
   0.00000000  -0.00000027  -0.00000000            0.00       -0.04       -0.00
   0.00000000  -0.00000000  -0.00000027            0.00       -0.00       -0.04


     Writing all to output data dir /home/paolo/project_labqsm/Silicon/SCRATCH/silicon.save/

     init_run     :      0.75s CPU      0.78s WALL (       2 calls)
     electrons    :     25.06s CPU     25.69s WALL (       7 calls)
     update_pot   :      0.86s CPU      0.89s WALL (       5 calls)
     forces       :      0.59s CPU      0.62s WALL (       7 calls)
     stress       :      2.08s CPU      2.38s WALL (       7 calls)

     Called by init_run:
     wfcinit      :      0.48s CPU      0.50s WALL (       2 calls)
     potinit      :      0.12s CPU      0.14s WALL (       2 calls)
     hinit0       :      0.11s CPU      0.12s WALL (       2 calls)

     Called by electrons:
     c_bands      :     21.31s CPU     21.74s WALL (      55 calls)
     sum_band     :      3.47s CPU      3.62s WALL (      55 calls)
     v_of_rho     :      0.17s CPU      0.17s WALL (      59 calls)
     mix_rho      :      0.08s CPU      0.14s WALL (      55 calls)

     Called by c_bands:
     init_us_2    :      0.64s CPU      0.71s WALL (    3654 calls)
     init_us_2:cp :      0.64s CPU      0.70s WALL (    3654 calls)
     cegterg      :     20.70s CPU     21.02s WALL (    1595 calls)

     Called by *egterg:
     cdiaghg      :      0.03s CPU      0.09s WALL (    5237 calls)
     h_psi        :     19.48s CPU     19.80s WALL (    5527 calls)
     g_psi        :      0.09s CPU      0.09s WALL (    3874 calls)

     Called by h_psi:
     h_psi:calbec :      0.45s CPU      0.43s WALL (    5527 calls)
     vloc_psi     :     18.75s CPU     18.95s WALL (    5527 calls)
     add_vuspsi   :      0.27s CPU      0.31s WALL (    5527 calls)

     General routines
     calbec       :      0.52s CPU      0.49s WALL (    6542 calls)
     fft          :      0.14s CPU      0.16s WALL (     213 calls)
     ffts         :      0.03s CPU      0.04s WALL (      55 calls)
     fftw         :     20.05s CPU     20.07s WALL (   46146 calls)


     PWSCF        :     29.38s CPU     30.43s WALL


   This run was terminated on:  12:22:24  12May2024            

=------------------------------------------------------------------------------=
   JOB DONE.
=------------------------------------------------------------------------------=
