
     Program BANDS v.7.2 starts on  8Jun2024 at 21:24:41 

     This program is part of the open-source Quantum ESPRESSO suite
     for quantum simulation of materials; please cite
         "P. Giannozzi et al., J. Phys.:Condens. Matter 21 395502 (2009);
         "P. Giannozzi et al., J. Phys.:Condens. Matter 29 465901 (2017);
         "P. Giannozzi et al., J. Chem. Phys. 152 154105 (2020);
          URL http://www.quantum-espresso.org", 
     in publications or presentations arising from this work. More details at
     http://www.quantum-espresso.org/quote

     Serial version
     9951 MiB available memory on the printing compute node when the environment starts


     Reading xml data from directory:

     ./SCRATCH/zns.save/

     IMPORTANT: XC functional enforced from input :
     Exchange-correlation= PBE
                           (   1   4   3   4   0   0   0)
     Any further DFT definition will be discarded
     Please, verify this is what you really want


     G-vector sticks info
     --------------------
     sticks:   dense  smooth     PW     G-vecs:    dense   smooth      PW
     Sum         871     871    253                16961    16961    2733

     Using Slab Decomposition

     Reading collected, re-writing distributed wavefunctions
     high-symmetry point:  0.0000 0.0000 1.0000   x coordinate   0.0000
     high-symmetry point:  0.0000 0.0000 0.0000   x coordinate   1.0000
     high-symmetry point: -0.5000 0.5000 0.5000   x coordinate   1.8660
     high-symmetry point: -0.5000 0.0000 1.0000   x coordinate   2.5731
     high-symmetry point: -0.7500 0.0000 0.7500   x coordinate   2.9267
     high-symmetry point:  0.0000 0.0000 0.0000   x coordinate   3.9873

     Plottable bands (eV) written to file bands_zns.dat.gnu
     Bands written to file bands_zns.dat

 **************************************************************************

                    xk=(   0.00000,   0.00000,   1.00000  )

     point group D_2d (-42m)
     there are  5 classes
     the character table:

       E     2S4   C2    2C2'  2s_d 
A_1    1.00  1.00  1.00  1.00  1.00
A_2    1.00  1.00  1.00 -1.00 -1.00
B_1    1.00 -1.00  1.00  1.00 -1.00
B_2    1.00 -1.00  1.00 -1.00  1.00
E      2.00  0.00 -2.00  0.00  0.00

     the symmetry operations in each class and the name of the first element:

     E        1
                                                                 
     2S4      7    8
                                                                 
     C2       2
                                                                 
     2C2'     3    4
                                                                 
     2s_d     5    6
                                                                 

     Band symmetry, D_2d (-42m) point group:

     e(  1 -  1) =   -117.68155  eV     1   --> A_1  X_1  W_1  
     e(  2 -  4) =    -71.83645  eV     3   --> B_2  X_3  W_2  
     e(  2 -  4) =    -71.83645  eV     3   --> E    X_5  W_3  
     e(  5 -  5) =     -4.60395  eV     1   --> B_2  X_3  W_2  
     e(  6 -  6) =      0.93133  eV     1   --> A_1  X_1  W_1  
     e(  7 -  8) =      1.26502  eV     2   --> E    X_5  W_3  
     e(  9 -  9) =      1.47913  eV     1   --> B_1  X_2  W_1' 
     e( 10 - 10) =      1.62203  eV     1   --> B_2  X_3  W_2  
     e( 11 - 11) =      2.72779  eV     1   --> A_1  X_1  W_1  
     e( 12 - 13) =      5.06168  eV     2   --> E    X_5  W_3  
     e( 14 - 14) =     10.67607  eV     1   --> B_2  X_3  W_2  
     e( 15 - 15) =     11.30084  eV     1   --> A_1  X_1  W_1  
     e( 16 - 16) =     18.02586  eV     1   --> A_1  X_1  W_1  
     e( 17 - 17) =     19.03784  eV     1   -->   ?

 **************************************************************************

 **************************************************************************

                    xk=(   0.00000,   0.00000,   0.97500  )

     point group C_2v (mm2) 
     there are  4 classes
     the character table:

       E     C2    s_v   s_v' 
A_1    1.00  1.00  1.00  1.00
A_2    1.00  1.00 -1.00 -1.00
B_1    1.00 -1.00  1.00 -1.00
B_2    1.00 -1.00 -1.00  1.00

     the symmetry operations in each class and the name of the first element:

     E        1
                                                                 
     C2       2
                                                                 
     s_v      3
                                                                 
     s_v'     4
                                                                 

     Band symmetry, C_2v (mm2)  point group:

     e(  1 -  1) =   -117.68155  eV     1   --> A_1  D_1  S_1  
     e(  2 -  4) =    -71.83646  eV     3   --> A_1  D_1  S_1  
     e(  2 -  4) =    -71.83646  eV     3   --> B_1  D_3  S_3  
     e(  2 -  4) =    -71.83646  eV     3   --> B_2  D_4  S_4  
     e(  5 -  5) =     -4.60616  eV     1   --> A_1  D_1  S_1  
     e(  6 -  6) =      0.93075  eV     1   --> A_1  D_1  S_1  
     e(  7 -  8) =      1.26328  eV     2   --> B_1  D_3  S_3  
     e(  7 -  8) =      1.26328  eV     2   --> B_2  D_4  S_4  
     e(  9 -  9) =      1.47872  eV     1   --> A_2  D_2  S_2  
     e( 10 - 10) =      1.61795  eV     1   --> A_1  D_1  S_1  
     e( 11 - 11) =      2.73582  eV     1   --> A_1  D_1  S_1  
     e( 12 - 13) =      5.06424  eV     2   --> B_1  D_3  S_3  
     e( 12 - 13) =      5.06424  eV     2   --> B_2  D_4  S_4  
     e( 14 - 14) =     10.67868  eV     1   --> A_1  D_1  S_1  
     e( 15 - 15) =     11.30316  eV     1   --> A_1  D_1  S_1  
     e( 16 - 16) =     18.01227  eV     1   --> A_1  D_1  S_1  
     e( 17 - 17) =     19.01297  eV     1   -->   ?

 **************************************************************************

 **************************************************************************

                    xk=(   0.00000,   0.00000,   0.95000  )

     Band symmetry, C_2v (mm2)  point group:

     e(  1 -  1) =   -117.68155  eV     1   --> A_1  D_1  S_1  
     e(  2 -  4) =    -71.83646  eV     3   --> A_1  D_1  S_1  
     e(  2 -  4) =    -71.83646  eV     3   --> B_1  D_3  S_3  
     e(  2 -  4) =    -71.83646  eV     3   --> B_2  D_4  S_4  
     e(  5 -  5) =     -4.61275  eV     1   --> A_1  D_1  S_1  
     e(  6 -  6) =      0.93030  eV     1   --> A_1  D_1  S_1  
     e(  7 -  8) =      1.26121  eV     2   --> B_1  D_3  S_3  
     e(  7 -  8) =      1.26121  eV     2   --> B_2  D_4  S_4  
     e(  9 -  9) =      1.47839  eV     1   --> A_2  D_2  S_2  
     e( 10 - 10) =      1.60834  eV     1   --> A_1  D_1  S_1  
     e( 11 - 11) =      2.76054  eV     1   --> A_1  D_1  S_1  
     e( 12 - 13) =      5.07254  eV     2   --> B_1  D_3  S_3  
     e( 12 - 13) =      5.07254  eV     2   --> B_2  D_4  S_4  
     e( 14 - 14) =     10.68778  eV     1   --> A_1  D_1  S_1  
     e( 15 - 15) =     11.31124  eV     1   --> A_1  D_1  S_1  
     e( 16 - 16) =     17.97280  eV     1   --> A_1  D_1  S_1  
     e( 17 - 17) =     18.94361  eV     1   -->   ?

 **************************************************************************

 **************************************************************************

                    xk=(   0.00000,   0.00000,   0.92500  )

     Band symmetry, C_2v (mm2)  point group:

     e(  1 -  1) =   -117.68155  eV     1   --> A_1  D_1  S_1  
     e(  2 -  4) =    -71.83646  eV     3   --> A_1  D_1  S_1  
     e(  2 -  4) =    -71.83646  eV     3   --> B_1  D_3  S_3  
     e(  2 -  4) =    -71.83646  eV     3   --> B_2  D_4  S_4  
     e(  5 -  5) =     -4.62365  eV     1   --> A_1  D_1  S_1  
     e(  6 -  6) =      0.92926  eV     1   --> A_1  D_1  S_1  
     e(  7 -  8) =      1.25776  eV     2   --> B_1  D_3  S_3  
     e(  7 -  8) =      1.25776  eV     2   --> B_2  D_4  S_4  
     e(  9 -  9) =      1.47785  eV     1   --> A_2  D_2  S_2  
     e( 10 - 10) =      1.59345  eV     1   --> A_1  D_1  S_1  
     e( 11 - 11) =      2.80033  eV     1   --> A_1  D_1  S_1  
     e( 12 - 13) =      5.08633  eV     2   --> B_1  D_3  S_3  
     e( 12 - 13) =      5.08633  eV     2   --> B_2  D_4  S_4  
     e( 14 - 14) =     10.70286  eV     1   --> A_1  D_1  S_1  
     e( 15 - 15) =     11.32446  eV     1   --> A_1  D_1  S_1  
     e( 16 - 16) =     17.90852  eV     1   --> A_1  D_1  S_1  
     e( 17 - 17) =     18.83627  eV     1   -->   ?

 **************************************************************************

 **************************************************************************

                    xk=(   0.00000,   0.00000,   0.90000  )

     Band symmetry, C_2v (mm2)  point group:

     e(  1 -  1) =   -117.68155  eV     1   --> A_1  D_1  S_1  
     e(  2 -  4) =    -71.83646  eV     3   --> A_1  D_1  S_1  
     e(  2 -  4) =    -71.83646  eV     3   --> B_1  D_3  S_3  
     e(  2 -  4) =    -71.83646  eV     3   --> B_2  D_4  S_4  
     e(  5 -  5) =     -4.63876  eV     1   --> A_1  D_1  S_1  
     e(  6 -  6) =      0.92820  eV     1   --> A_1  D_1  S_1  
     e(  7 -  8) =      1.25293  eV     2   --> B_1  D_3  S_3  
     e(  7 -  8) =      1.25293  eV     2   --> B_2  D_4  S_4  
     e(  9 -  9) =      1.47710  eV     1   --> A_2  D_2  S_2  
     e( 10 - 10) =      1.57451  eV     1   --> A_1  D_1  S_1  
     e( 11 - 11) =      2.85403  eV     1   --> A_1  D_1  S_1  
     e( 12 - 13) =      5.10552  eV     2   --> B_1  D_3  S_3  
     e( 12 - 13) =      5.10552  eV     2   --> B_2  D_4  S_4  
     e( 14 - 14) =     10.72394  eV     1   --> A_1  D_1  S_1  
     e( 15 - 15) =     11.34292  eV     1   --> A_1  D_1  S_1  
     e( 16 - 16) =     17.82203  eV     1   --> A_1  D_1  S_1  
     e( 17 - 17) =     18.69953  eV     1   -->   ?

 **************************************************************************

 **************************************************************************

                    xk=(   0.00000,   0.00000,   0.87500  )

     Band symmetry, C_2v (mm2)  point group:

     e(  1 -  1) =   -117.68155  eV     1   --> A_1  D_1  S_1  
     e(  2 -  4) =    -71.83646  eV     3   --> A_1  D_1  S_1  
     e(  2 -  4) =    -71.83646  eV     3   --> B_1  D_3  S_3  
     e(  2 -  4) =    -71.83646  eV     3   --> B_2  D_4  S_4  
     e(  5 -  5) =     -4.65793  eV     1   --> A_1  D_1  S_1  
     e(  6 -  6) =      0.92687  eV     1   --> A_1  D_1  S_1  
     e(  7 -  8) =      1.24709  eV     2   --> B_1  D_3  S_3  
     e(  7 -  8) =      1.24709  eV     2   --> B_2  D_4  S_4  
     e(  9 -  9) =      1.47615  eV     1   --> A_2  D_2  S_2  
     e( 10 - 10) =      1.55329  eV     1   --> A_1  D_1  S_1  
     e( 11 - 11) =      2.91986  eV     1   --> A_1  D_1  S_1  
     e( 12 - 13) =      5.13007  eV     2   --> B_1  D_3  S_3  
     e( 12 - 13) =      5.13007  eV     2   --> B_2  D_4  S_4  
     e( 14 - 14) =     10.75106  eV     1   --> A_1  D_1  S_1  
     e( 15 - 15) =     11.36628  eV     1   --> A_1  D_1  S_1  
     e( 16 - 16) =     17.71621  eV     1   --> A_1  D_1  S_1  
     e( 17 - 17) =     18.54184  eV     1   -->   ?

 **************************************************************************

 **************************************************************************

                    xk=(   0.00000,   0.00000,   0.85000  )

     Band symmetry, C_2v (mm2)  point group:

     e(  1 -  1) =   -117.68155  eV     1   --> A_1  D_1  S_1  
     e(  2 -  4) =    -71.83646  eV     3   --> A_1  D_1  S_1  
     e(  2 -  4) =    -71.83646  eV     3   --> B_1  D_3  S_3  
     e(  2 -  4) =    -71.83646  eV     3   --> B_2  D_4  S_4  
     e(  5 -  5) =     -4.68095  eV     1   --> A_1  D_1  S_1  
     e(  6 -  6) =      0.92519  eV     1   --> A_1  D_1  S_1  
     e(  7 -  8) =      1.24056  eV     2   --> B_1  D_3  S_3  
     e(  7 -  8) =      1.24056  eV     2   --> B_2  D_4  S_4  
     e(  9 -  9) =      1.47441  eV     1   --> A_2  D_2  S_2  
     e( 10 - 10) =      1.53071  eV     1   --> A_1  D_1  S_1  
     e( 11 - 11) =      2.99622  eV     1   --> A_1  D_1  S_1  
     e( 12 - 13) =      5.15991  eV     2   --> B_1  D_3  S_3  
     e( 12 - 13) =      5.15991  eV     2   --> B_2  D_4  S_4  
     e( 14 - 14) =     10.78390  eV     1   --> A_1  D_1  S_1  
     e( 15 - 15) =     11.39404  eV     1   --> A_1  D_1  S_1  
     e( 16 - 16) =     17.59426  eV     1   --> A_1  D_1  S_1  
     e( 17 - 17) =     18.36936  eV     1   -->   ?

 **************************************************************************

 **************************************************************************

                    xk=(   0.00000,   0.00000,   0.82500  )

     Band symmetry, C_2v (mm2)  point group:

     e(  1 -  1) =   -117.68155  eV     1   --> A_1  D_1  S_1  
     e(  2 -  4) =    -71.83646  eV     3   --> A_1  D_1  S_1  
     e(  2 -  4) =    -71.83646  eV     3   --> B_1  D_3  S_3  
     e(  2 -  4) =    -71.83646  eV     3   --> B_2  D_4  S_4  
     e(  5 -  5) =     -4.70761  eV     1   --> A_1  D_1  S_1  
     e(  6 -  6) =      0.92330  eV     1   --> A_1  D_1  S_1  
     e(  7 -  8) =      1.23248  eV     2   --> B_1  D_3  S_3  
     e(  7 -  8) =      1.23248  eV     2   --> B_2  D_4  S_4  
     e(  9 -  9) =      1.47272  eV     1   --> A_2  D_2  S_2  
     e( 10 - 10) =      1.50807  eV     1   --> A_1  D_1  S_1  
     e( 11 - 11) =      3.08162  eV     1   --> A_1  D_1  S_1  
     e( 12 - 13) =      5.19477  eV     2   --> B_1  D_3  S_3  
     e( 12 - 13) =      5.19477  eV     2   --> B_2  D_4  S_4  
     e( 14 - 14) =     10.82245  eV     1   --> A_1  D_1  S_1  
     e( 15 - 15) =     11.42576  eV     1   --> A_1  D_1  S_1  
     e( 16 - 16) =     17.45938  eV     1   --> A_1  D_1  S_1  
     e( 17 - 17) =     18.18683  eV     1   -->   ?

 **************************************************************************

 **************************************************************************

                    xk=(   0.00000,   0.00000,   0.80000  )

     Band symmetry, C_2v (mm2)  point group:

     e(  1 -  1) =   -117.68155  eV     1   --> A_1  D_1  S_1  
     e(  2 -  4) =    -71.83645  eV     3   --> A_1  D_1  S_1  
     e(  2 -  4) =    -71.83645  eV     3   --> B_1  D_3  S_3  
     e(  2 -  4) =    -71.83645  eV     3   --> B_2  D_4  S_4  
     e(  5 -  5) =     -4.73766  eV     1   --> A_1  D_1  S_1  
     e(  6 -  6) =      0.92116  eV     1   --> A_1  D_1  S_1  
     e(  7 -  8) =      1.22346  eV     2   --> B_1  D_3  S_3  
     e(  7 -  8) =      1.22346  eV     2   --> B_2  D_4  S_4  
     e(  9 -  9) =      1.47118  eV     1   --> A_2  D_2  S_2  
     e( 10 - 10) =      1.48656  eV     1   --> A_1  D_1  S_1  
     e( 11 - 11) =      3.17492  eV     1   --> A_1  D_1  S_1  
     e( 12 - 13) =      5.23452  eV     2   --> B_1  D_3  S_3  
     e( 12 - 13) =      5.23452  eV     2   --> B_2  D_4  S_4  
     e( 14 - 14) =     10.86691  eV     1   --> A_1  D_1  S_1  
     e( 15 - 15) =     11.46125  eV     1   --> A_1  D_1  S_1  
     e( 16 - 16) =     17.31494  eV     1   --> A_1  D_1  S_1  
     e( 17 - 17) =     17.99794  eV     1   -->   ?

 **************************************************************************

 **************************************************************************

                    xk=(   0.00000,   0.00000,   0.77500  )

     Band symmetry, C_2v (mm2)  point group:

     e(  1 -  1) =   -117.68155  eV     1   --> A_1  D_1  S_1  
     e(  2 -  4) =    -71.83645  eV     3   --> A_1  D_1  S_1  
     e(  2 -  4) =    -71.83645  eV     3   --> B_1  D_3  S_3  
     e(  2 -  4) =    -71.83645  eV     3   --> B_2  D_4  S_4  
     e(  5 -  5) =     -4.77081  eV     1   --> A_1  D_1  S_1  
     e(  6 -  6) =      0.91883  eV     1   --> A_1  D_1  S_1  
     e(  7 -  8) =      1.21359  eV     2   --> B_1  D_3  S_3  
     e(  7 -  8) =      1.21359  eV     2   --> B_2  D_4  S_4  
     e(  9 -  9) =      1.46649  eV     1   --> A_1  D_1  S_1  
     e( 10 - 10) =      1.46948  eV     1   --> A_2  D_2  S_2  
     e( 11 - 11) =      3.27510  eV     1   --> A_1  D_1  S_1  
     e( 12 - 13) =      5.27900  eV     2   --> B_1  D_3  S_3  
     e( 12 - 13) =      5.27900  eV     2   --> B_2  D_4  S_4  
     e( 14 - 14) =     10.91692  eV     1   --> A_1  D_1  S_1  
     e( 15 - 15) =     11.49949  eV     1   --> A_1  D_1  S_1  
     e( 16 - 16) =     17.16428  eV     1   --> A_1  D_1  S_1  
     e( 17 - 17) =     17.80506  eV     1   -->   ?

 **************************************************************************

 **************************************************************************

                    xk=(   0.00000,   0.00000,   0.75000  )

     Band symmetry, C_2v (mm2)  point group:

     e(  1 -  1) =   -117.68155  eV     1   --> A_1  D_1  S_1  
     e(  2 -  4) =    -71.83645  eV     3   --> A_1  D_1  S_1  
     e(  2 -  4) =    -71.83645  eV     3   --> B_1  D_3  S_3  
     e(  2 -  4) =    -71.83645  eV     3   --> B_2  D_4  S_4  
     e(  5 -  5) =     -4.80677  eV     1   --> A_1  D_1  S_1  
     e(  6 -  6) =      0.91640  eV     1   --> A_1  D_1  S_1  
     e(  7 -  8) =      1.20328  eV     2   --> B_1  D_3  S_3  
     e(  7 -  8) =      1.20328  eV     2   --> B_2  D_4  S_4  
     e(  9 -  9) =      1.44829  eV     1   --> A_1  D_1  S_1  
     e( 10 - 10) =      1.46817  eV     1   --> A_2  D_2  S_2  
     e( 11 - 11) =      3.38130  eV     1   --> A_1  D_1  S_1  
     e( 12 - 13) =      5.32811  eV     2   --> B_1  D_3  S_3  
     e( 12 - 13) =      5.32811  eV     2   --> B_2  D_4  S_4  
     e( 14 - 14) =     10.97237  eV     1   --> A_1  D_1  S_1  
     e( 15 - 15) =     11.53956  eV     1   --> A_1  D_1  S_1  
     e( 16 - 16) =     17.01064  eV     1   --> A_1  D_1  S_1  
     e( 17 - 17) =     17.61004  eV     1   -->   ?

 **************************************************************************

 **************************************************************************

                    xk=(   0.00000,   0.00000,   0.72500  )

     Band symmetry, C_2v (mm2)  point group:

     e(  1 -  1) =   -117.68155  eV     1   --> A_1  D_1  S_1  
     e(  2 -  4) =    -71.83644  eV     3   --> A_1  D_1  S_1  
     e(  2 -  4) =    -71.83644  eV     3   --> B_1  D_3  S_3  
     e(  2 -  4) =    -71.83644  eV     3   --> B_2  D_4  S_4  
     e(  5 -  5) =     -4.84522  eV     1   --> A_1  D_1  S_1  
     e(  6 -  6) =      0.91390  eV     1   --> A_1  D_1  S_1  
     e(  7 -  8) =      1.19200  eV     2   --> B_1  D_3  S_3  
     e(  7 -  8) =      1.19200  eV     2   --> B_2  D_4  S_4  
     e(  9 -  9) =      1.43215  eV     1   --> A_1  D_1  S_1  
     e( 10 - 10) =      1.46613  eV     1   --> A_2  D_2  S_2  
     e( 11 - 11) =      3.49281  eV     1   --> A_1  D_1  S_1  
     e( 12 - 13) =      5.38144  eV     2   --> B_1  D_3  S_3  
     e( 12 - 13) =      5.38144  eV     2   --> B_2  D_4  S_4  
     e( 14 - 14) =     11.03311  eV     1   --> A_1  D_1  S_1  
     e( 15 - 15) =     11.58025  eV     1   --> A_1  D_1  S_1  
     e( 16 - 16) =     16.85715  eV     1   --> A_1  D_1  S_1  
     e( 17 - 17) =     17.41415  eV     1   -->   ?

 **************************************************************************

 **************************************************************************

                    xk=(   0.00000,   0.00000,   0.70000  )

     Band symmetry, C_2v (mm2)  point group:

     e(  1 -  1) =   -117.68155  eV     1   --> A_1  D_1  S_1  
     e(  2 -  4) =    -71.83643  eV     3   --> A_1  D_1  S_1  
     e(  2 -  4) =    -71.83643  eV     3   --> B_1  D_3  S_3  
     e(  2 -  4) =    -71.83643  eV     3   --> B_2  D_4  S_4  
     e(  5 -  5) =     -4.88583  eV     1   --> A_1  D_1  S_1  
     e(  6 -  6) =      0.91177  eV     1   --> A_1  D_1  S_1  
     e(  7 -  8) =      1.18030  eV     2   --> B_1  D_3  S_3  
     e(  7 -  8) =      1.18030  eV     2   --> B_2  D_4  S_4  
     e(  9 -  9) =      1.41869  eV     1   --> A_1  D_1  S_1  
     e( 10 - 10) =      1.46395  eV     1   --> A_2  D_2  S_2  
     e( 11 - 11) =      3.60926  eV     1   --> A_1  D_1  S_1  
     e( 12 - 13) =      5.43888  eV     2   --> B_1  D_3  S_3  
     e( 12 - 13) =      5.43888  eV     2   --> B_2  D_4  S_4  
     e( 14 - 14) =     11.09906  eV     1   --> A_1  D_1  S_1  
     e( 15 - 15) =     11.62048  eV     1   --> A_1  D_1  S_1  
     e( 16 - 16) =     16.70717  eV     1   --> A_1  D_1  S_1  
     e( 17 - 17) =     17.21844  eV     1   -->   ?

 **************************************************************************

 **************************************************************************

                    xk=(   0.00000,   0.00000,   0.67500  )

     Band symmetry, C_2v (mm2)  point group:

     e(  1 -  1) =   -117.68156  eV     1   --> A_1  D_1  S_1  
     e(  2 -  4) =    -71.83643  eV     3   --> A_1  D_1  S_1  
     e(  2 -  4) =    -71.83643  eV     3   --> B_1  D_3  S_3  
     e(  2 -  4) =    -71.83643  eV     3   --> B_2  D_4  S_4  
     e(  5 -  5) =     -4.92829  eV     1   --> A_1  D_1  S_1  
     e(  6 -  6) =      0.90921  eV     1   --> A_1  D_1  S_1  
     e(  7 -  8) =      1.16767  eV     2   --> B_1  D_3  S_3  
     e(  7 -  8) =      1.16767  eV     2   --> B_2  D_4  S_4  
     e(  9 -  9) =      1.40669  eV     1   --> A_1  D_1  S_1  
     e( 10 - 10) =      1.46138  eV     1   --> A_2  D_2  S_2  
     e( 11 - 11) =      3.72955  eV     1   --> A_1  D_1  S_1  
     e( 12 - 13) =      5.50005  eV     2   --> B_1  D_3  S_3  
     e( 12 - 13) =      5.50005  eV     2   --> B_2  D_4  S_4  
     e( 14 - 14) =     11.16977  eV     1   --> A_1  D_1  S_1  
     e( 15 - 15) =     11.65777  eV     1   --> A_1  D_1  S_1  
     e( 16 - 16) =     16.56349  eV     1   --> A_1  D_1  S_1  
     e( 17 - 17) =     17.02298  eV     1   -->   ?

 **************************************************************************

 **************************************************************************

                    xk=(   0.00000,   0.00000,   0.65000  )

     Band symmetry, C_2v (mm2)  point group:

     e(  1 -  1) =   -117.68156  eV     1   --> A_1  D_1  S_1  
     e(  2 -  4) =    -71.83642  eV     3   --> A_1  D_1  S_1  
     e(  2 -  4) =    -71.83642  eV     3   --> B_1  D_3  S_3  
     e(  2 -  4) =    -71.83642  eV     3   --> B_2  D_4  S_4  
     e(  5 -  5) =     -4.97225  eV     1   --> A_1  D_1  S_1  
     e(  6 -  6) =      0.90708  eV     1   --> A_1  D_1  S_1  
     e(  7 -  8) =      1.15524  eV     2   --> B_1  D_3  S_3  
     e(  7 -  8) =      1.15524  eV     2   --> B_2  D_4  S_4  
     e(  9 -  9) =      1.39715  eV     1   --> A_1  D_1  S_1  
     e( 10 - 10) =      1.45896  eV     1   --> A_2  D_2  S_2  
     e( 11 - 11) =      3.85379  eV     1   --> A_1  D_1  S_1  
     e( 12 - 13) =      5.56491  eV     2   --> B_1  D_3  S_3  
     e( 12 - 13) =      5.56491  eV     2   --> B_2  D_4  S_4  
     e( 14 - 14) =     11.24545  eV     1   --> A_1  D_1  S_1  
     e( 15 - 15) =     11.69084  eV     1   --> A_1  D_1  S_1  
     e( 16 - 16) =     16.42997  eV     1   --> A_1  D_1  S_1  
     e( 17 - 17) =     16.82978  eV     1   -->   ?

 **************************************************************************

 **************************************************************************

                    xk=(   0.00000,   0.00000,   0.62500  )

     Band symmetry, C_2v (mm2)  point group:

     e(  1 -  1) =   -117.68156  eV     1   --> A_1  D_1  S_1  
     e(  2 -  4) =    -71.83642  eV     3   --> A_1  D_1  S_1  
     e(  2 -  4) =    -71.83642  eV     3   --> B_1  D_3  S_3  
     e(  2 -  4) =    -71.83642  eV     3   --> B_2  D_4  S_4  
     e(  5 -  5) =     -5.01739  eV     1   --> A_1  D_1  S_1  
     e(  6 -  6) =      0.90515  eV     1   --> A_1  D_1  S_1  
     e(  7 -  8) =      1.14243  eV     2   --> B_1  D_3  S_3  
     e(  7 -  8) =      1.14243  eV     2   --> B_2  D_4  S_4  
     e(  9 -  9) =      1.38940  eV     1   --> A_1  D_1  S_1  
     e( 10 - 10) =      1.45645  eV     1   --> A_2  D_2  S_2  
     e( 11 - 11) =      3.98130  eV     1   --> A_1  D_1  S_1  
     e( 12 - 13) =      5.63305  eV     2   --> B_1  D_3  S_3  
     e( 12 - 13) =      5.63305  eV     2   --> B_2  D_4  S_4  
     e( 14 - 14) =     11.32562  eV     1   --> A_1  D_1  S_1  
     e( 15 - 15) =     11.71694  eV     1   --> A_1  D_1  S_1  
     e( 16 - 16) =     16.30974  eV     1   --> A_1  D_1  S_1  
     e( 17 - 17) =     16.63854  eV     1   -->   ?

 **************************************************************************

 **************************************************************************

                    xk=(   0.00000,   0.00000,   0.60000  )

     Band symmetry, C_2v (mm2)  point group:

     e(  1 -  1) =   -117.68156  eV     1   --> A_1  D_1  S_1  
     e(  2 -  4) =    -71.83642  eV     3   --> A_1  D_1  S_1  
     e(  2 -  4) =    -71.83642  eV     3   --> B_1  D_3  S_3  
     e(  2 -  4) =    -71.83642  eV     3   --> B_2  D_4  S_4  
     e(  5 -  5) =     -5.06338  eV     1   --> A_1  D_1  S_1  
     e(  6 -  6) =      0.90342  eV     1   --> A_1  D_1  S_1  
     e(  7 -  8) =      1.12927  eV     2   --> B_1  D_3  S_3  
     e(  7 -  8) =      1.12927  eV     2   --> B_2  D_4  S_4  
     e(  9 -  9) =      1.38289  eV     1   --> A_1  D_1  S_1  
     e( 10 - 10) =      1.45383  eV     1   --> A_2  D_2  S_2  
     e( 11 - 11) =      4.11180  eV     1   --> A_1  D_1  S_1  
     e( 12 - 13) =      5.70414  eV     2   --> B_1  D_3  S_3  
     e( 12 - 13) =      5.70414  eV     2   --> B_2  D_4  S_4  
     e( 14 - 14) =     11.40991  eV     1   --> A_1  D_1  S_1  
     e( 15 - 15) =     11.73380  eV     1   --> A_1  D_1  S_1  
     e( 16 - 16) =     16.20577  eV     1   --> A_1  D_1  S_1  
     e( 17 - 17) =     16.44947  eV     1   -->   ?

 **************************************************************************

 **************************************************************************

                    xk=(   0.00000,   0.00000,   0.57500  )

     Band symmetry, C_2v (mm2)  point group:

     e(  1 -  1) =   -117.68156  eV     1   --> A_1  D_1  S_1  
     e(  2 -  4) =    -71.83641  eV     3   --> A_1  D_1  S_1  
     e(  2 -  4) =    -71.83641  eV     3   --> B_1  D_3  S_3  
     e(  2 -  4) =    -71.83641  eV     3   --> B_2  D_4  S_4  
     e(  5 -  5) =     -5.10990  eV     1   --> A_1  D_1  S_1  
     e(  6 -  6) =      0.90239  eV     1   --> A_1  D_1  S_1  
     e(  7 -  8) =      1.11691  eV     2   --> B_1  D_3  S_3  
     e(  7 -  8) =      1.11691  eV     2   --> B_2  D_4  S_4  
     e(  9 -  9) =      1.37862  eV     1   --> A_1  D_1  S_1  
     e( 10 - 10) =      1.45138  eV     1   --> A_2  D_2  S_2  
     e( 11 - 11) =      4.24530  eV     1   --> A_1  D_1  S_1  
     e( 12 - 13) =      5.77834  eV     2   --> B_1  D_3  S_3  
     e( 12 - 13) =      5.77834  eV     2   --> B_2  D_4  S_4  
     e( 14 - 14) =     11.49802  eV     1   --> A_1  D_1  S_1  
     e( 15 - 15) =     11.73957  eV     1   --> A_1  D_1  S_1  
     e( 16 - 16) =     16.12250  eV     1   --> A_1  D_1  S_1  
     e( 17 - 17) =     16.26354  eV     1   -->   ?

 **************************************************************************

 **************************************************************************

                    xk=(   0.00000,   0.00000,   0.55000  )

     Band symmetry, C_2v (mm2)  point group:

     e(  1 -  1) =   -117.68156  eV     1   --> A_1  D_1  S_1  
     e(  2 -  4) =    -71.83640  eV     3   --> A_1  D_1  S_1  
     e(  2 -  4) =    -71.83640  eV     3   --> B_1  D_3  S_3  
     e(  2 -  4) =    -71.83640  eV     3   --> B_2  D_4  S_4  
     e(  5 -  5) =     -5.15664  eV     1   --> A_1  D_1  S_1  
     e(  6 -  6) =      0.90170  eV     1   --> A_1  D_1  S_1  
     e(  7 -  8) =      1.10395  eV     2   --> B_1  D_3  S_3  
     e(  7 -  8) =      1.10395  eV     2   --> B_2  D_4  S_4  
     e(  9 -  9) =      1.37563  eV     1   --> A_1  D_1  S_1  
     e( 10 - 10) =      1.44867  eV     1   --> A_2  D_2  S_2  
     e( 11 - 11) =      4.38120  eV     1   --> A_1  D_1  S_1  
     e( 12 - 13) =      5.85460  eV     2   --> B_1  D_3  S_3  
     e( 12 - 13) =      5.85460  eV     2   --> B_2  D_4  S_4  
     e( 14 - 14) =     11.58761  eV     1   --> A_1  D_1  S_1  
     e( 15 - 15) =     11.73352  eV     1   --> A_1  D_1  S_1  
     e( 16 - 16) =     16.06221  eV     1   --> A_1  D_1  S_1  
     e( 17 - 17) =     16.08064  eV     1   -->   ?

 **************************************************************************

 **************************************************************************

                    xk=(   0.00000,   0.00000,   0.52500  )

     Band symmetry, C_2v (mm2)  point group:

     e(  1 -  1) =   -117.68156  eV     1   --> A_1  D_1  S_1  
     e(  2 -  4) =    -71.83640  eV     3   --> A_1  D_1  S_1  
     e(  2 -  4) =    -71.83640  eV     3   --> B_1  D_3  S_3  
     e(  2 -  4) =    -71.83640  eV     3   --> B_2  D_4  S_4  
     e(  5 -  5) =     -5.20330  eV     1   --> A_1  D_1  S_1  
     e(  6 -  6) =      0.90103  eV     1   --> A_1  D_1  S_1  
     e(  7 -  8) =      1.09059  eV     2   --> B_1  D_3  S_3  
     e(  7 -  8) =      1.09059  eV     2   --> B_2  D_4  S_4  
     e(  9 -  9) =      1.37363  eV     1   --> A_1  D_1  S_1  
     e( 10 - 10) =      1.44536  eV     1   --> A_2  D_2  S_2  
     e( 11 - 11) =      4.51907  eV     1   --> A_1  D_1  S_1  
     e( 12 - 13) =      5.93276  eV     2   --> B_1  D_3  S_3  
     e( 12 - 13) =      5.93276  eV     2   --> B_2  D_4  S_4  
     e( 14 - 14) =     11.65963  eV     1   --> A_1  D_1  S_1  
     e( 15 - 15) =     11.73231  eV     1   --> A_1  D_1  S_1  
     e( 16 - 17) =     15.90039  eV     2   --> B_1  D_3  S_3  
     e( 16 - 17) =     15.90039  eV     2   --> B_2  D_4  S_4  

 **************************************************************************

 **************************************************************************

                    xk=(   0.00000,   0.00000,   0.50000  )

     Band symmetry, C_2v (mm2)  point group:

     e(  1 -  1) =   -117.68156  eV     1   --> A_1  D_1  S_1  
     e(  2 -  4) =    -71.83639  eV     3   --> A_1  D_1  S_1  
     e(  2 -  4) =    -71.83639  eV     3   --> B_1  D_3  S_3  
     e(  2 -  4) =    -71.83639  eV     3   --> B_2  D_4  S_4  
     e(  5 -  5) =     -5.24961  eV     1   --> A_1  D_1  S_1  
     e(  6 -  6) =      0.90120  eV     1   --> A_1  D_1  S_1  
     e(  7 -  8) =      1.07796  eV     2   --> B_1  D_3  S_3  
     e(  7 -  8) =      1.07796  eV     2   --> B_2  D_4  S_4  
     e(  9 -  9) =      1.37236  eV     1   --> A_1  D_1  S_1  
     e( 10 - 10) =      1.44258  eV     1   --> A_2  D_2  S_2  
     e( 11 - 11) =      4.65933  eV     1   --> A_1  D_1  S_1  
     e( 12 - 13) =      6.01277  eV     2   --> B_1  D_3  S_3  
     e( 12 - 13) =      6.01277  eV     2   --> B_2  D_4  S_4  
     e( 14 - 14) =     11.64391  eV     1   --> A_1  D_1  S_1  
     e( 15 - 15) =     11.80470  eV     1   --> A_1  D_1  S_1  
     e( 16 - 17) =     15.72465  eV     2   --> B_1  D_3  S_3  
     e( 16 - 17) =     15.72465  eV     2   --> B_2  D_4  S_4  

 **************************************************************************

 **************************************************************************

                    xk=(   0.00000,   0.00000,   0.47500  )

     Band symmetry, C_2v (mm2)  point group:

     e(  1 -  1) =   -117.68156  eV     1   --> A_1  D_1  S_1  
     e(  2 -  4) =    -71.83638  eV     3   --> A_1  D_1  S_1  
     e(  2 -  4) =    -71.83638  eV     3   --> B_1  D_3  S_3  
     e(  2 -  4) =    -71.83638  eV     3   --> B_2  D_4  S_4  
     e(  5 -  5) =     -5.29529  eV     1   --> A_1  D_1  S_1  
     e(  6 -  6) =      0.90198  eV     1   --> A_1  D_1  S_1  
     e(  7 -  8) =      1.06616  eV     2   --> B_1  D_3  S_3  
     e(  7 -  8) =      1.06616  eV     2   --> B_2  D_4  S_4  
     e(  9 -  9) =      1.37303  eV     1   --> A_1  D_1  S_1  
     e( 10 - 10) =      1.43991  eV     1   --> A_2  D_2  S_2  
     e( 11 - 11) =      4.80171  eV     1   --> A_1  D_1  S_1  
     e( 12 - 13) =      6.09437  eV     2   --> B_1  D_3  S_3  
     e( 12 - 13) =      6.09437  eV     2   --> B_2  D_4  S_4  
     e( 14 - 14) =     11.58548  eV     1   --> A_1  D_1  S_1  
     e( 15 - 15) =     11.90519  eV     1   --> A_1  D_1  S_1  
     e( 16 - 17) =     15.55309  eV     2   --> B_1  D_3  S_3  
     e( 16 - 17) =     15.55309  eV     2   --> B_2  D_4  S_4  

 **************************************************************************

 **************************************************************************

                    xk=(   0.00000,   0.00000,   0.45000  )

     Band symmetry, C_2v (mm2)  point group:

     e(  1 -  1) =   -117.68156  eV     1   --> A_1  D_1  S_1  
     e(  2 -  4) =    -71.83637  eV     3   --> A_1  D_1  S_1  
     e(  2 -  4) =    -71.83637  eV     3   --> B_1  D_3  S_3  
     e(  2 -  4) =    -71.83637  eV     3   --> B_2  D_4  S_4  
     e(  5 -  5) =     -5.34008  eV     1   --> A_1  D_1  S_1  
     e(  6 -  6) =      0.90316  eV     1   --> A_1  D_1  S_1  
     e(  7 -  8) =      1.05452  eV     2   --> B_1  D_3  S_3  
     e(  7 -  8) =      1.05452  eV     2   --> B_2  D_4  S_4  
     e(  9 -  9) =      1.37395  eV     1   --> A_1  D_1  S_1  
     e( 10 - 10) =      1.43748  eV     1   --> A_2  D_2  S_2  
     e( 11 - 11) =      4.94579  eV     1   --> A_1  D_1  S_1  
     e( 12 - 13) =      6.17678  eV     2   --> B_1  D_3  S_3  
     e( 12 - 13) =      6.17678  eV     2   --> B_2  D_4  S_4  
     e( 14 - 14) =     11.50565  eV     1   --> A_1  D_1  S_1  
     e( 15 - 15) =     12.01181  eV     1   --> A_1  D_1  S_1  
     e( 16 - 17) =     15.38586  eV     2   --> B_1  D_3  S_3  
     e( 16 - 17) =     15.38586  eV     2   --> B_2  D_4  S_4  

 **************************************************************************

 **************************************************************************

                    xk=(   0.00000,   0.00000,   0.42500  )

     Band symmetry, C_2v (mm2)  point group:

     e(  1 -  1) =   -117.68156  eV     1   --> A_1  D_1  S_1  
     e(  2 -  4) =    -71.83637  eV     3   --> A_1  D_1  S_1  
     e(  2 -  4) =    -71.83637  eV     3   --> B_1  D_3  S_3  
     e(  2 -  4) =    -71.83637  eV     3   --> B_2  D_4  S_4  
     e(  5 -  5) =     -5.38374  eV     1   --> A_1  D_1  S_1  
     e(  6 -  6) =      0.90467  eV     1   --> A_1  D_1  S_1  
     e(  7 -  8) =      1.04260  eV     2   --> B_1  D_3  S_3  
     e(  7 -  8) =      1.04260  eV     2   --> B_2  D_4  S_4  
     e(  9 -  9) =      1.37536  eV     1   --> A_1  D_1  S_1  
     e( 10 - 10) =      1.43555  eV     1   --> A_2  D_2  S_2  
     e( 11 - 11) =      5.09145  eV     1   --> A_1  D_1  S_1  
     e( 12 - 13) =      6.25951  eV     2   --> B_1  D_3  S_3  
     e( 12 - 13) =      6.25951  eV     2   --> B_2  D_4  S_4  
     e( 14 - 14) =     11.40770  eV     1   --> A_1  D_1  S_1  
     e( 15 - 15) =     12.12203  eV     1   --> A_1  D_1  S_1  
     e( 16 - 17) =     15.22284  eV     2   --> B_1  D_3  S_3  
     e( 16 - 17) =     15.22284  eV     2   --> B_2  D_4  S_4  

 **************************************************************************

 **************************************************************************

                    xk=(   0.00000,   0.00000,   0.40000  )

     Band symmetry, C_2v (mm2)  point group:

     e(  1 -  1) =   -117.68156  eV     1   --> A_1  D_1  S_1  
     e(  2 -  4) =    -71.83636  eV     3   --> A_1  D_1  S_1  
     e(  2 -  4) =    -71.83636  eV     3   --> B_1  D_3  S_3  
     e(  2 -  4) =    -71.83636  eV     3   --> B_2  D_4  S_4  
     e(  5 -  5) =     -5.42605  eV     1   --> A_1  D_1  S_1  
     e(  6 -  6) =      0.90660  eV     1   --> A_1  D_1  S_1  
     e(  7 -  8) =      1.03140  eV     2   --> B_1  D_3  S_3  
     e(  7 -  8) =      1.03140  eV     2   --> B_2  D_4  S_4  
     e(  9 -  9) =      1.37791  eV     1   --> A_1  D_1  S_1  
     e( 10 - 10) =      1.43284  eV     1   --> A_2  D_2  S_2  
     e( 11 - 11) =      5.23859  eV     1   --> A_1  D_1  S_1  
     e( 12 - 13) =      6.34227  eV     2   --> B_1  D_3  S_3  
     e( 12 - 13) =      6.34227  eV     2   --> B_2  D_4  S_4  
     e( 14 - 14) =     11.29383  eV     1   --> A_1  D_1  S_1  
     e( 15 - 15) =     12.23504  eV     1   --> A_1  D_1  S_1  
     e( 16 - 17) =     15.06528  eV     2   --> B_1  D_3  S_3  
     e( 16 - 17) =     15.06528  eV     2   --> B_2  D_4  S_4  

 **************************************************************************

 **************************************************************************

                    xk=(   0.00000,   0.00000,   0.37500  )

     Band symmetry, C_2v (mm2)  point group:

     e(  1 -  1) =   -117.68156  eV     1   --> A_1  D_1  S_1  
     e(  2 -  4) =    -71.83636  eV     3   --> A_1  D_1  S_1  
     e(  2 -  4) =    -71.83636  eV     3   --> B_1  D_3  S_3  
     e(  2 -  4) =    -71.83636  eV     3   --> B_2  D_4  S_4  
     e(  5 -  5) =     -5.46679  eV     1   --> A_1  D_1  S_1  
     e(  6 -  6) =      0.90858  eV     1   --> A_1  D_1  S_1  
     e(  7 -  8) =      1.02034  eV     2   --> B_1  D_3  S_3  
     e(  7 -  8) =      1.02034  eV     2   --> B_2  D_4  S_4  
     e(  9 -  9) =      1.38018  eV     1   --> A_1  D_1  S_1  
     e( 10 - 10) =      1.43007  eV     1   --> A_2  D_2  S_2  
     e( 11 - 11) =      5.38670  eV     1   --> A_1  D_1  S_1  
     e( 12 - 13) =      6.42441  eV     2   --> B_1  D_3  S_3  
     e( 12 - 13) =      6.42441  eV     2   --> B_2  D_4  S_4  
     e( 14 - 14) =     11.16597  eV     1   --> A_1  D_1  S_1  
     e( 15 - 15) =     12.35006  eV     1   --> A_1  D_1  S_1  
     e( 16 - 17) =     14.91258  eV     2   --> B_1  D_3  S_3  
     e( 16 - 17) =     14.91258  eV     2   --> B_2  D_4  S_4  

 **************************************************************************

 **************************************************************************

                    xk=(   0.00000,   0.00000,   0.35000  )

     Band symmetry, C_2v (mm2)  point group:

     e(  1 -  1) =   -117.68156  eV     1   --> A_1  D_1  S_1  
     e(  2 -  4) =    -71.83636  eV     3   --> A_1  D_1  S_1  
     e(  2 -  4) =    -71.83636  eV     3   --> B_1  D_3  S_3  
     e(  2 -  4) =    -71.83636  eV     3   --> B_2  D_4  S_4  
     e(  5 -  5) =     -5.50578  eV     1   --> A_1  D_1  S_1  
     e(  6 -  6) =      0.91099  eV     1   --> A_1  D_1  S_1  
     e(  7 -  8) =      1.01053  eV     2   --> B_1  D_3  S_3  
     e(  7 -  8) =      1.01053  eV     2   --> B_2  D_4  S_4  
     e(  9 -  9) =      1.38239  eV     1   --> A_1  D_1  S_1  
     e( 10 - 10) =      1.42764  eV     1   --> A_2  D_2  S_2  
     e( 11 - 11) =      5.53609  eV     1   --> A_1  D_1  S_1  
     e( 12 - 13) =      6.50591  eV     2   --> B_1  D_3  S_3  
     e( 12 - 13) =      6.50591  eV     2   --> B_2  D_4  S_4  
     e( 14 - 14) =     11.02666  eV     1   --> A_1  D_1  S_1  
     e( 15 - 15) =     12.46679  eV     1   --> A_1  D_1  S_1  
     e( 16 - 17) =     14.76646  eV     2   --> B_1  D_3  S_3  
     e( 16 - 17) =     14.76646  eV     2   --> B_2  D_4  S_4  

 **************************************************************************

 **************************************************************************

                    xk=(   0.00000,   0.00000,   0.32500  )

     Band symmetry, C_2v (mm2)  point group:

     e(  1 -  1) =   -117.68156  eV     1   --> A_1  D_1  S_1  
     e(  2 -  4) =    -71.83635  eV     3   --> A_1  D_1  S_1  
     e(  2 -  4) =    -71.83635  eV     3   --> B_1  D_3  S_3  
     e(  2 -  4) =    -71.83635  eV     3   --> B_2  D_4  S_4  
     e(  5 -  5) =     -5.54282  eV     1   --> A_1  D_1  S_1  
     e(  6 -  6) =      0.91360  eV     1   --> A_1  D_1  S_1  
     e(  7 -  8) =      1.00091  eV     2   --> B_1  D_3  S_3  
     e(  7 -  8) =      1.00091  eV     2   --> B_2  D_4  S_4  
     e(  9 -  9) =      1.38505  eV     1   --> A_1  D_1  S_1  
     e( 10 - 10) =      1.42518  eV     1   --> A_2  D_2  S_2  
     e( 11 - 11) =      5.68616  eV     1   --> A_1  D_1  S_1  
     e( 12 - 13) =      6.58573  eV     2   --> B_1  D_3  S_3  
     e( 12 - 13) =      6.58573  eV     2   --> B_2  D_4  S_4  
     e( 14 - 14) =     10.87800  eV     1   --> A_1  D_1  S_1  
     e( 15 - 15) =     12.58435  eV     1   --> A_1  D_1  S_1  
     e( 16 - 17) =     14.62659  eV     2   --> B_1  D_3  S_3  
     e( 16 - 17) =     14.62659  eV     2   --> B_2  D_4  S_4  

 **************************************************************************

 **************************************************************************

                    xk=(   0.00000,   0.00000,   0.30000  )

     Band symmetry, C_2v (mm2)  point group:

     e(  1 -  1) =   -117.68156  eV     1   --> A_1  D_1  S_1  
     e(  2 -  4) =    -71.83635  eV     3   --> A_1  D_1  S_1  
     e(  2 -  4) =    -71.83635  eV     3   --> B_1  D_3  S_3  
     e(  2 -  4) =    -71.83635  eV     3   --> B_2  D_4  S_4  
     e(  5 -  5) =     -5.57776  eV     1   --> A_1  D_1  S_1  
     e(  6 -  6) =      0.91619  eV     1   --> A_1  D_1  S_1  
     e(  7 -  8) =      0.99151  eV     2   --> B_1  D_3  S_3  
     e(  7 -  8) =      0.99151  eV     2   --> B_2  D_4  S_4  
     e(  9 -  9) =      1.38769  eV     1   --> A_1  D_1  S_1  
     e( 10 - 10) =      1.42282  eV     1   --> A_2  D_2  S_2  
     e( 11 - 11) =      5.83650  eV     1   --> A_1  D_1  S_1  
     e( 12 - 13) =      6.66322  eV     2   --> B_1  D_3  S_3  
     e( 12 - 13) =      6.66322  eV     2   --> B_2  D_4  S_4  
     e( 14 - 14) =     10.72228  eV     1   --> A_1  D_1  S_1  
     e( 15 - 15) =     12.70184  eV     1   --> A_1  D_1  S_1  
     e( 16 - 17) =     14.49304  eV     2   --> B_1  D_3  S_3  
     e( 16 - 17) =     14.49304  eV     2   --> B_2  D_4  S_4  

 **************************************************************************

 **************************************************************************

                    xk=(   0.00000,   0.00000,   0.27500  )

     Band symmetry, C_2v (mm2)  point group:

     e(  1 -  1) =   -117.68156  eV     1   --> A_1  D_1  S_1  
     e(  2 -  4) =    -71.83634  eV     3   --> A_1  D_1  S_1  
     e(  2 -  4) =    -71.83634  eV     3   --> B_1  D_3  S_3  
     e(  2 -  4) =    -71.83634  eV     3   --> B_2  D_4  S_4  
     e(  5 -  5) =     -5.61043  eV     1   --> A_1  D_1  S_1  
     e(  6 -  6) =      0.91918  eV     1   --> A_1  D_1  S_1  
     e(  7 -  8) =      0.98325  eV     2   --> B_1  D_3  S_3  
     e(  7 -  8) =      0.98325  eV     2   --> B_2  D_4  S_4  
     e(  9 -  9) =      1.39050  eV     1   --> A_1  D_1  S_1  
     e( 10 - 10) =      1.42062  eV     1   --> A_2  D_2  S_2  
     e( 11 - 11) =      5.98711  eV     1   --> A_1  D_1  S_1  
     e( 12 - 13) =      6.73832  eV     2   --> B_1  D_3  S_3  
     e( 12 - 13) =      6.73832  eV     2   --> B_2  D_4  S_4  
     e( 14 - 14) =     10.56172  eV     1   --> A_1  D_1  S_1  
     e( 15 - 15) =     12.81874  eV     1   --> A_1  D_1  S_1  
     e( 16 - 17) =     14.36745  eV     2   --> B_1  D_3  S_3  
     e( 16 - 17) =     14.36745  eV     2   --> B_2  D_4  S_4  

 **************************************************************************

 **************************************************************************

                    xk=(   0.00000,   0.00000,   0.25000  )

     Band symmetry, C_2v (mm2)  point group:

     e(  1 -  1) =   -117.68156  eV     1   --> A_1  D_1  S_1  
     e(  2 -  4) =    -71.83635  eV     3   --> A_1  D_1  S_1  
     e(  2 -  4) =    -71.83635  eV     3   --> B_1  D_3  S_3  
     e(  2 -  4) =    -71.83635  eV     3   --> B_2  D_4  S_4  
     e(  5 -  5) =     -5.64072  eV     1   --> A_1  D_1  S_1  
     e(  6 -  6) =      0.92189  eV     1   --> A_1  D_1  S_1  
     e(  7 -  8) =      0.97524  eV     2   --> B_1  D_3  S_3  
     e(  7 -  8) =      0.97524  eV     2   --> B_2  D_4  S_4  
     e(  9 -  9) =      1.39259  eV     1   --> A_1  D_1  S_1  
     e( 10 - 10) =      1.41855  eV     1   --> A_2  D_2  S_2  
     e( 11 - 11) =      6.13697  eV     1   --> A_1  D_1  S_1  
     e( 12 - 13) =      6.80985  eV     2   --> B_1  D_3  S_3  
     e( 12 - 13) =      6.80985  eV     2   --> B_2  D_4  S_4  
     e( 14 - 14) =     10.39834  eV     1   --> A_1  D_1  S_1  
     e( 15 - 15) =     12.93369  eV     1   --> A_1  D_1  S_1  
     e( 16 - 17) =     14.24975  eV     2   --> B_1  D_3  S_3  
     e( 16 - 17) =     14.24975  eV     2   --> B_2  D_4  S_4  

 **************************************************************************

 **************************************************************************

                    xk=(   0.00000,   0.00000,   0.22500  )

     Band symmetry, C_2v (mm2)  point group:

     e(  1 -  1) =   -117.68156  eV     1   --> A_1  D_1  S_1  
     e(  2 -  4) =    -71.83634  eV     3   --> A_1  D_1  S_1  
     e(  2 -  4) =    -71.83634  eV     3   --> B_1  D_3  S_3  
     e(  2 -  4) =    -71.83634  eV     3   --> B_2  D_4  S_4  
     e(  5 -  5) =     -5.66848  eV     1   --> A_1  D_1  S_1  
     e(  6 -  6) =      0.92459  eV     1   --> A_1  D_1  S_1  
     e(  7 -  8) =      0.96819  eV     2   --> B_1  D_3  S_3  
     e(  7 -  8) =      0.96819  eV     2   --> B_2  D_4  S_4  
     e(  9 -  9) =      1.39516  eV     1   --> A_1  D_1  S_1  
     e( 10 - 10) =      1.41666  eV     1   --> A_2  D_2  S_2  
     e( 11 - 11) =      6.28550  eV     1   --> A_1  D_1  S_1  
     e( 12 - 13) =      6.87747  eV     2   --> B_1  D_3  S_3  
     e( 12 - 13) =      6.87747  eV     2   --> B_2  D_4  S_4  
     e( 14 - 14) =     10.23425  eV     1   --> A_1  D_1  S_1  
     e( 15 - 15) =     13.04561  eV     1   --> A_1  D_1  S_1  
     e( 16 - 17) =     14.14067  eV     2   --> B_1  D_3  S_3  
     e( 16 - 17) =     14.14067  eV     2   --> B_2  D_4  S_4  

 **************************************************************************

 **************************************************************************

                    xk=(   0.00000,   0.00000,   0.20000  )

     Band symmetry, C_2v (mm2)  point group:

     e(  1 -  1) =   -117.68156  eV     1   --> A_1  D_1  S_1  
     e(  2 -  4) =    -71.83634  eV     3   --> A_1  D_1  S_1  
     e(  2 -  4) =    -71.83634  eV     3   --> B_1  D_3  S_3  
     e(  2 -  4) =    -71.83634  eV     3   --> B_2  D_4  S_4  
     e(  5 -  5) =     -5.69360  eV     1   --> A_1  D_1  S_1  
     e(  6 -  6) =      0.92740  eV     1   --> A_1  D_1  S_1  
     e(  7 -  8) =      0.96234  eV     2   --> B_1  D_3  S_3  
     e(  7 -  8) =      0.96234  eV     2   --> B_2  D_4  S_4  
     e(  9 -  9) =      1.39760  eV     1   --> A_1  D_1  S_1  
     e( 10 - 10) =      1.41518  eV     1   --> A_2  D_2  S_2  
     e( 11 - 11) =      6.43183  eV     1   --> A_1  D_1  S_1  
     e( 12 - 13) =      6.94084  eV     2   --> B_1  D_3  S_3  
     e( 12 - 13) =      6.94084  eV     2   --> B_2  D_4  S_4  
     e( 14 - 14) =     10.07158  eV     1   --> A_1  D_1  S_1  
     e( 15 - 15) =     13.15317  eV     1   --> A_1  D_1  S_1  
     e( 16 - 17) =     14.04090  eV     2   --> B_1  D_3  S_3  
     e( 16 - 17) =     14.04090  eV     2   --> B_2  D_4  S_4  

 **************************************************************************

 **************************************************************************

                    xk=(   0.00000,   0.00000,   0.17500  )

     Band symmetry, C_2v (mm2)  point group:

     e(  1 -  1) =   -117.68156  eV     1   --> A_1  D_1  S_1  
     e(  2 -  4) =    -71.83633  eV     3   --> A_1  D_1  S_1  
     e(  2 -  4) =    -71.83633  eV     3   --> B_1  D_3  S_3  
     e(  2 -  4) =    -71.83633  eV     3   --> B_2  D_4  S_4  
     e(  5 -  5) =     -5.71600  eV     1   --> A_1  D_1  S_1  
     e(  6 -  6) =      0.92979  eV     1   --> A_1  D_1  S_1  
     e(  7 -  8) =      0.95669  eV     2   --> B_1  D_3  S_3  
     e(  7 -  8) =      0.95669  eV     2   --> B_2  D_4  S_4  
     e(  9 -  9) =      1.39985  eV     1   --> A_1  D_1  S_1  
     e( 10 - 10) =      1.41362  eV     1   --> A_2  D_2  S_2  
     e( 11 - 11) =      6.57423  eV     1   --> A_1  D_1  S_1  
     e( 12 - 13) =      6.99841  eV     2   --> B_1  D_3  S_3  
     e( 12 - 13) =      6.99841  eV     2   --> B_2  D_4  S_4  
     e( 14 - 14) =      9.91264  eV     1   --> A_1  D_1  S_1  
     e( 15 - 15) =     13.25460  eV     1   --> A_1  D_1  S_1  
     e( 16 - 17) =     13.95082  eV     2   --> B_1  D_3  S_3  
     e( 16 - 17) =     13.95082  eV     2   --> B_2  D_4  S_4  

 **************************************************************************

 **************************************************************************

                    xk=(   0.00000,   0.00000,   0.15000  )

     Band symmetry, C_2v (mm2)  point group:

     e(  1 -  1) =   -117.68156  eV     1   --> A_1  D_1  S_1  
     e(  2 -  4) =    -71.83633  eV     3   --> A_1  D_1  S_1  
     e(  2 -  4) =    -71.83633  eV     3   --> B_1  D_3  S_3  
     e(  2 -  4) =    -71.83633  eV     3   --> B_2  D_4  S_4  
     e(  5 -  5) =     -5.73558  eV     1   --> A_1  D_1  S_1  
     e(  6 -  6) =      0.93196  eV     1   --> A_1  D_1  S_1  
     e(  7 -  8) =      0.95193  eV     2   --> B_1  D_3  S_3  
     e(  7 -  8) =      0.95193  eV     2   --> B_2  D_4  S_4  
     e(  9 -  9) =      1.40199  eV     1   --> A_1  D_1  S_1  
     e( 10 - 10) =      1.41234  eV     1   --> A_2  D_2  S_2  
     e( 11 - 11) =      6.71096  eV     1   --> A_1  D_1  S_1  
     e( 12 - 13) =      7.05010  eV     2   --> B_1  D_3  S_3  
     e( 12 - 13) =      7.05010  eV     2   --> B_2  D_4  S_4  
     e( 14 - 14) =      9.76013  eV     1   --> A_1  D_1  S_1  
     e( 15 - 15) =     13.34825  eV     1   --> A_1  D_1  S_1  
     e( 16 - 17) =     13.87123  eV     2   --> B_1  D_3  S_3  
     e( 16 - 17) =     13.87123  eV     2   --> B_2  D_4  S_4  

 **************************************************************************

 **************************************************************************

                    xk=(   0.00000,   0.00000,   0.12500  )

     Band symmetry, C_2v (mm2)  point group:

     e(  1 -  1) =   -117.68156  eV     1   --> A_1  D_1  S_1  
     e(  2 -  4) =    -71.83632  eV     3   --> A_1  D_1  S_1  
     e(  2 -  4) =    -71.83632  eV     3   --> B_1  D_3  S_3  
     e(  2 -  4) =    -71.83632  eV     3   --> B_2  D_4  S_4  
     e(  5 -  5) =     -5.75228  eV     1   --> A_1  D_1  S_1  
     e(  6 -  6) =      0.93388  eV     1   --> A_1  D_1  S_1  
     e(  7 -  8) =      0.94827  eV     2   --> B_1  D_3  S_3  
     e(  7 -  8) =      0.94827  eV     2   --> B_2  D_4  S_4  
     e(  9 -  9) =      1.40476  eV     1   --> A_1  D_1  S_1  
     e( 10 - 10) =      1.41142  eV     1   --> A_2  D_2  S_2  
     e( 11 - 11) =      6.83943  eV     1   --> A_1  D_1  S_1  
     e( 12 - 13) =      7.09535  eV     2   --> B_1  D_3  S_3  
     e( 12 - 13) =      7.09535  eV     2   --> B_2  D_4  S_4  
     e( 14 - 14) =      9.61733  eV     1   --> A_1  D_1  S_1  
     e( 15 - 15) =     13.43225  eV     1   --> A_1  D_1  S_1  
     e( 16 - 17) =     13.80279  eV     2   --> B_1  D_3  S_3  
     e( 16 - 17) =     13.80279  eV     2   --> B_2  D_4  S_4  

 **************************************************************************

 **************************************************************************

                    xk=(   0.00000,   0.00000,   0.10000  )

     Band symmetry, C_2v (mm2)  point group:

     e(  1 -  1) =   -117.68156  eV     1   --> A_1  D_1  S_1  
     e(  2 -  4) =    -71.83632  eV     3   --> A_1  D_1  S_1  
     e(  2 -  4) =    -71.83632  eV     3   --> B_1  D_3  S_3  
     e(  2 -  4) =    -71.83632  eV     3   --> B_2  D_4  S_4  
     e(  5 -  5) =     -5.76602  eV     1   --> A_1  D_1  S_1  
     e(  6 -  6) =      0.93549  eV     1   --> A_1  D_1  S_1  
     e(  7 -  8) =      0.94480  eV     2   --> B_1  D_3  S_3  
     e(  7 -  8) =      0.94480  eV     2   --> B_2  D_4  S_4  
     e(  9 -  9) =      1.40617  eV     1   --> A_1  D_1  S_1  
     e( 10 - 10) =      1.41044  eV     1   --> A_2  D_2  S_2  
     e( 11 - 11) =      6.95607  eV     1   --> A_1  D_1  S_1  
     e( 12 - 13) =      7.13296  eV     2   --> B_1  D_3  S_3  
     e( 12 - 13) =      7.13296  eV     2   --> B_2  D_4  S_4  
     e( 14 - 14) =      9.48828  eV     1   --> A_1  D_1  S_1  
     e( 15 - 15) =     13.50455  eV     1   --> A_1  D_1  S_1  
     e( 16 - 17) =     13.74579  eV     2   --> B_1  D_3  S_3  
     e( 16 - 17) =     13.74579  eV     2   --> B_2  D_4  S_4  

 **************************************************************************

 **************************************************************************

                    xk=(   0.00000,   0.00000,   0.07500  )

     Band symmetry, C_2v (mm2)  point group:

     e(  1 -  1) =   -117.68156  eV     1   --> A_1  D_1  S_1  
     e(  2 -  4) =    -71.83632  eV     3   --> A_1  D_1  S_1  
     e(  2 -  4) =    -71.83632  eV     3   --> B_1  D_3  S_3  
     e(  2 -  4) =    -71.83632  eV     3   --> B_2  D_4  S_4  
     e(  5 -  5) =     -5.77676  eV     1   --> A_1  D_1  S_1  
     e(  6 -  6) =      0.93677  eV     1   --> A_1  D_1  S_1  
     e(  7 -  8) =      0.94202  eV     2   --> B_1  D_3  S_3  
     e(  7 -  8) =      0.94202  eV     2   --> B_2  D_4  S_4  
     e(  9 -  9) =      1.40723  eV     1   --> A_1  D_1  S_1  
     e( 10 - 10) =      1.40930  eV     1   --> A_2  D_2  S_2  
     e( 11 - 11) =      7.05627  eV     1   --> A_1  D_1  S_1  
     e( 12 - 13) =      7.16275  eV     2   --> B_1  D_3  S_3  
     e( 12 - 13) =      7.16275  eV     2   --> B_2  D_4  S_4  
     e( 14 - 14) =      9.37801  eV     1   --> A_1  D_1  S_1  
     e( 15 - 15) =     13.56328  eV     1   --> A_1  D_1  S_1  
     e( 16 - 17) =     13.70083  eV     2   --> B_1  D_3  S_3  
     e( 16 - 17) =     13.70083  eV     2   --> B_2  D_4  S_4  

 **************************************************************************

 **************************************************************************

                    xk=(   0.00000,   0.00000,   0.05000  )

     Band symmetry, C_2v (mm2)  point group:

     e(  1 -  1) =   -117.68156  eV     1   --> A_1  D_1  S_1  
     e(  2 -  4) =    -71.83632  eV     3   --> A_1  D_1  S_1  
     e(  2 -  4) =    -71.83632  eV     3   --> B_1  D_3  S_3  
     e(  2 -  4) =    -71.83632  eV     3   --> B_2  D_4  S_4  
     e(  5 -  5) =     -5.78445  eV     1   --> A_1  D_1  S_1  
     e(  6 -  6) =      0.93770  eV     1   --> A_1  D_1  S_1  
     e(  7 -  8) =      0.94008  eV     2   --> B_1  D_3  S_3  
     e(  7 -  8) =      0.94008  eV     2   --> B_2  D_4  S_4  
     e(  9 -  9) =      1.40806  eV     1   --> A_1  D_1  S_1  
     e( 10 - 10) =      1.40874  eV     1   --> A_2  D_2  S_2  
     e( 11 - 11) =      7.13441  eV     1   --> A_1  D_1  S_1  
     e( 12 - 13) =      7.18439  eV     2   --> B_1  D_3  S_3  
     e( 12 - 13) =      7.18439  eV     2   --> B_2  D_4  S_4  
     e( 14 - 14) =      9.29247  eV     1   --> A_1  D_1  S_1  
     e( 15 - 15) =     13.60668  eV     1   --> A_1  D_1  S_1  
     e( 16 - 17) =     13.66845  eV     2   --> B_1  D_3  S_3  
     e( 16 - 17) =     13.66845  eV     2   --> B_2  D_4  S_4  

 **************************************************************************

 **************************************************************************

                    xk=(   0.00000,   0.00000,   0.02500  )

     Band symmetry, C_2v (mm2)  point group:

     e(  1 -  1) =   -117.68156  eV     1   --> A_1  D_1  S_1  
     e(  2 -  4) =    -71.83632  eV     3   --> A_1  D_1  S_1  
     e(  2 -  4) =    -71.83632  eV     3   --> B_1  D_3  S_3  
     e(  2 -  4) =    -71.83632  eV     3   --> B_2  D_4  S_4  
     e(  5 -  5) =     -5.78908  eV     1   --> A_1  D_1  S_1  
     e(  6 -  6) =      0.93827  eV     1   --> A_1  D_1  S_1  
     e(  7 -  8) =      0.93885  eV     2   --> B_1  D_3  S_3  
     e(  7 -  8) =      0.93885  eV     2   --> B_2  D_4  S_4  
     e(  9 -  9) =      1.40812  eV     1   --> A_1  D_1  S_1  
     e( 10 - 10) =      1.40839  eV     1   --> A_2  D_2  S_2  
     e( 11 - 11) =      7.18453  eV     1   --> A_1  D_1  S_1  
     e( 12 - 13) =      7.19747  eV     2   --> B_1  D_3  S_3  
     e( 12 - 13) =      7.19747  eV     2   --> B_2  D_4  S_4  
     e( 14 - 14) =      9.23780  eV     1   --> A_1  D_1  S_1  
     e( 15 - 15) =     13.63332  eV     1   --> A_1  D_1  S_1  
     e( 16 - 17) =     13.64885  eV     2   --> B_1  D_3  S_3  
     e( 16 - 17) =     13.64885  eV     2   --> B_2  D_4  S_4  

 **************************************************************************

 **************************************************************************

                    xk=(   0.00000,   0.00000,   0.00000  )

     point group T_d (-43m) 
     there are  5 classes
     the character table:

       E     8C3   3C2   6S4   6s_d 
A_1    1.00  1.00  1.00  1.00  1.00
A_2    1.00  1.00  1.00 -1.00 -1.00
E      2.00 -1.00  2.00  0.00  0.00
T_1    3.00  0.00 -1.00  1.00 -1.00
T_2    3.00  0.00 -1.00 -1.00  1.00

     the symmetry operations in each class and the name of the first element:

     E        1
                                                                 
     8C3      5    7    8    6   12    9   10   11
                                                                 
     3C2      2    3    4
                                                                 
     6S4     15   16   20   19   23   24
                                                                 
     6s_d    13   14   17   18   21   22
                                                                 

     Band symmetry, T_d (-43m)  point group:

     e(  1 -  1) =   -117.68156  eV     1   --> A_1  G_1  P_1  
     e(  2 -  4) =    -71.83632  eV     3   --> T_2  G_15 P_4  
     e(  5 -  5) =     -5.79063  eV     1   --> A_1  G_1  P_1  
     e(  6 -  8) =      0.93846  eV     3   --> T_2  G_15 P_4  
     e(  9 - 10) =      1.40828  eV     2   --> E    G_12 P_3  
     e( 11 - 13) =      7.20186  eV     3   --> T_2  G_15 P_4  
     e( 14 - 14) =      9.21894  eV     1   --> A_1  G_1  P_1  
     e( 15 - 17) =     13.64231  eV     3   --> T_2  G_15 P_4  

 **************************************************************************

 **************************************************************************

                    xk=(  -0.01250,   0.01250,   0.01250  )

     point group C_3v (3m)  
     there are  3 classes
     the character table:

       E     2C3   3s_v 
A_1    1.00  1.00  1.00
A_2    1.00  1.00 -1.00
E      2.00 -1.00  0.00

     the symmetry operations in each class and the name of the first element:

     E        1
                                                                 
     2C3      2    3
                                                                 
     3s_v     4    5    6
                                                                 

     Band symmetry, C_3v (3m)   point group:

     e(  1 -  1) =   -117.68156  eV     1   --> A_1  L_1       
     e(  2 -  4) =    -71.83632  eV     3   --> A_1  L_1       
     e(  2 -  4) =    -71.83632  eV     3   --> E    L_3       
     e(  5 -  5) =     -5.78947  eV     1   --> A_1  L_1       
     e(  6 -  6) =      0.93846  eV     1   --> A_1  L_1       
     e(  7 -  8) =      0.93868  eV     2   --> E    L_3       
     e(  9 - 10) =      1.40826  eV     2   --> E    L_3       
     e( 11 - 11) =      7.18533  eV     1   --> A_1  L_1       
     e( 12 - 13) =      7.20033  eV     2   --> E    L_3       
     e( 14 - 14) =      9.23309  eV     1   --> A_1  L_1       
     e( 15 - 15) =     13.63977  eV     1   --> A_1  L_1       
     e( 16 - 17) =     13.64512  eV     2   --> E    L_3       

 **************************************************************************

 **************************************************************************

                    xk=(  -0.02500,   0.02500,   0.02500  )

     Band symmetry, C_3v (3m)   point group:

     e(  1 -  1) =   -117.68156  eV     1   --> A_1  L_1       
     e(  2 -  4) =    -71.83632  eV     3   --> A_1  L_1       
     e(  2 -  4) =    -71.83632  eV     3   --> E    L_3       
     e(  5 -  5) =     -5.78600  eV     1   --> A_1  L_1       
     e(  6 -  6) =      0.93855  eV     1   --> A_1  L_1       
     e(  7 -  8) =      0.93941  eV     2   --> E    L_3       
     e(  9 - 10) =      1.40855  eV     2   --> E    L_3       
     e( 11 - 11) =      7.13724  eV     1   --> A_1  L_1       
     e( 12 - 13) =      7.19579  eV     2   --> E    L_3       
     e( 14 - 14) =      9.27405  eV     1   --> A_1  L_1       
     e( 15 - 15) =     13.63241  eV     1   --> A_1  L_1       
     e( 16 - 17) =     13.65353  eV     2   --> E    L_3       

 **************************************************************************

 **************************************************************************

                    xk=(  -0.03750,   0.03750,   0.03750  )

     Band symmetry, C_3v (3m)   point group:

     e(  1 -  1) =   -117.68156  eV     1   --> A_1  L_1       
     e(  2 -  4) =    -71.83632  eV     3   --> A_1  L_1       
     e(  2 -  4) =    -71.83632  eV     3   --> E    L_3       
     e(  5 -  5) =     -5.78022  eV     1   --> A_1  L_1       
     e(  6 -  6) =      0.93859  eV     1   --> A_1  L_1       
     e(  7 -  8) =      0.94049  eV     2   --> E    L_3       
     e(  9 - 10) =      1.40844  eV     2   --> E    L_3       
     e( 11 - 11) =      7.06117  eV     1   --> A_1  L_1       
     e( 12 - 13) =      7.18819  eV     2   --> E    L_3       
     e( 14 - 14) =      9.33796  eV     1   --> A_1  L_1       
     e( 15 - 15) =     13.62071  eV     1   --> A_1  L_1       
     e( 16 - 17) =     13.66733  eV     2   --> E    L_3       

 **************************************************************************

 **************************************************************************

                    xk=(  -0.05000,   0.05000,   0.05000  )

     Band symmetry, C_3v (3m)   point group:

     e(  1 -  1) =   -117.68156  eV     1   --> A_1  L_1       
     e(  2 -  4) =    -71.83632  eV     3   --> A_1  L_1       
     e(  2 -  4) =    -71.83632  eV     3   --> E    L_3       
     e(  5 -  5) =     -5.77217  eV     1   --> A_1  L_1       
     e(  6 -  6) =      0.93874  eV     1   --> A_1  L_1       
     e(  7 -  8) =      0.94207  eV     2   --> E    L_3       
     e(  9 - 10) =      1.40865  eV     2   --> E    L_3       
     e( 11 - 11) =      6.96206  eV     1   --> A_1  L_1       
     e( 12 - 13) =      7.17772  eV     2   --> E    L_3       
     e( 14 - 14) =      9.41980  eV     1   --> A_1  L_1       
     e( 15 - 15) =     13.60570  eV     1   --> A_1  L_1       
     e( 16 - 17) =     13.68640  eV     2   --> E    L_3       

 **************************************************************************

 **************************************************************************

                    xk=(  -0.06250,   0.06250,   0.06250  )

     Band symmetry, C_3v (3m)   point group:

     e(  1 -  1) =   -117.68156  eV     1   --> A_1  L_1       
     e(  2 -  4) =    -71.83632  eV     3   --> A_1  L_1       
     e(  2 -  4) =    -71.83632  eV     3   --> E    L_3       
     e(  5 -  5) =     -5.76187  eV     1   --> A_1  L_1       
     e(  6 -  6) =      0.93875  eV     1   --> A_1  L_1       
     e(  7 -  8) =      0.94390  eV     2   --> E    L_3       
     e(  9 - 10) =      1.40842  eV     2   --> E    L_3       
     e( 11 - 11) =      6.84456  eV     1   --> A_1  L_1       
     e( 12 - 13) =      7.16430  eV     2   --> E    L_3       
     e( 14 - 14) =      9.51447  eV     1   --> A_1  L_1       
     e( 15 - 15) =     13.58857  eV     1   --> A_1  L_1       
     e( 16 - 17) =     13.71031  eV     2   --> E    L_3       

 **************************************************************************

 **************************************************************************

                    xk=(  -0.07500,   0.07500,   0.07500  )

     Band symmetry, C_3v (3m)   point group:

     e(  1 -  1) =   -117.68156  eV     1   --> A_1  L_1       
     e(  2 -  4) =    -71.83633  eV     3   --> A_1  L_1       
     e(  2 -  4) =    -71.83633  eV     3   --> E    L_3       
     e(  5 -  5) =     -5.74935  eV     1   --> A_1  L_1       
     e(  6 -  6) =      0.93861  eV     1   --> A_1  L_1       
     e(  7 -  8) =      0.94606  eV     2   --> E    L_3       
     e(  9 - 10) =      1.40818  eV     2   --> E    L_3       
     e( 11 - 11) =      6.71258  eV     1   --> A_1  L_1       
     e( 12 - 13) =      7.14821  eV     2   --> E    L_3       
     e( 14 - 14) =      9.61738  eV     1   --> A_1  L_1       
     e( 15 - 15) =     13.57073  eV     1   --> A_1  L_1       
     e( 16 - 17) =     13.73877  eV     2   --> E    L_3       

 **************************************************************************

 **************************************************************************

                    xk=(  -0.08750,   0.08750,   0.08750  )

     Band symmetry, C_3v (3m)   point group:

     e(  1 -  1) =   -117.68156  eV     1   --> A_1  L_1       
     e(  2 -  4) =    -71.83633  eV     3   --> A_1  L_1       
     e(  2 -  4) =    -71.83633  eV     3   --> E    L_3       
     e(  5 -  5) =     -5.73467  eV     1   --> A_1  L_1       
     e(  6 -  6) =      0.93899  eV     1   --> A_1  L_1       
     e(  7 -  8) =      0.94872  eV     2   --> E    L_3       
     e(  9 - 10) =      1.40800  eV     2   --> E    L_3       
     e( 11 - 11) =      6.57013  eV     1   --> A_1  L_1       
     e( 12 - 13) =      7.12965  eV     2   --> E    L_3       
     e( 14 - 14) =      9.72477  eV     1   --> A_1  L_1       
     e( 15 - 15) =     13.55411  eV     1   --> A_1  L_1       
     e( 16 - 17) =     13.77135  eV     2   --> E    L_3       

 **************************************************************************

 **************************************************************************

                    xk=(  -0.10000,   0.10000,   0.10000  )

     Band symmetry, C_3v (3m)   point group:

     e(  1 -  1) =   -117.68156  eV     1   --> A_1  L_1       
     e(  2 -  4) =    -71.83634  eV     3   --> A_1  L_1       
     e(  2 -  4) =    -71.83634  eV     3   --> E    L_3       
     e(  5 -  5) =     -5.71787  eV     1   --> A_1  L_1       
     e(  6 -  6) =      0.93927  eV     1   --> A_1  L_1       
     e(  7 -  8) =      0.95153  eV     2   --> E    L_3       
     e(  9 - 10) =      1.40726  eV     2   --> E    L_3       
     e( 11 - 11) =      6.41914  eV     1   --> A_1  L_1       
     e( 12 - 13) =      7.10857  eV     2   --> E    L_3       
     e( 14 - 14) =      9.83337  eV     1   --> A_1  L_1       
     e( 15 - 15) =     13.54025  eV     1   --> A_1  L_1       
     e( 16 - 17) =     13.80739  eV     2   --> E    L_3       

 **************************************************************************

 **************************************************************************

                    xk=(  -0.11250,   0.11250,   0.11250  )

     Band symmetry, C_3v (3m)   point group:

     e(  1 -  1) =   -117.68156  eV     1   --> A_1  L_1       
     e(  2 -  4) =    -71.83634  eV     3   --> A_1  L_1       
     e(  2 -  4) =    -71.83634  eV     3   --> E    L_3       
     e(  5 -  5) =     -5.69903  eV     1   --> A_1  L_1       
     e(  6 -  6) =      0.94012  eV     1   --> A_1  L_1       
     e(  7 -  8) =      0.95485  eV     2   --> E    L_3       
     e(  9 - 10) =      1.40708  eV     2   --> E    L_3       
     e( 11 - 11) =      6.26226  eV     1   --> A_1  L_1       
     e( 12 - 13) =      7.08550  eV     2   --> E    L_3       
     e( 14 - 14) =      9.94061  eV     1   --> A_1  L_1       
     e( 15 - 15) =     13.53115  eV     1   --> A_1  L_1       
     e( 16 - 17) =     13.84643  eV     2   --> E    L_3       

 **************************************************************************

 **************************************************************************

                    xk=(  -0.12500,   0.12500,   0.12500  )

     Band symmetry, C_3v (3m)   point group:

     e(  1 -  1) =   -117.68156  eV     1   --> A_1  L_1       
     e(  2 -  4) =    -71.83634  eV     3   --> A_1  L_1       
     e(  2 -  4) =    -71.83634  eV     3   --> E    L_3       
     e(  5 -  5) =     -5.67822  eV     1   --> A_1  L_1       
     e(  6 -  6) =      0.94132  eV     1   --> A_1  L_1       
     e(  7 -  8) =      0.95835  eV     2   --> E    L_3       
     e(  9 - 10) =      1.40654  eV     2   --> E    L_3       
     e( 11 - 11) =      6.10075  eV     1   --> A_1  L_1       
     e( 12 - 13) =      7.06039  eV     2   --> E    L_3       
     e( 14 - 14) =     10.04419  eV     1   --> A_1  L_1       
     e( 15 - 15) =     13.52848  eV     1   --> A_1  L_1       
     e( 16 - 17) =     13.88766  eV     2   --> E    L_3       

 **************************************************************************

 **************************************************************************

                    xk=(  -0.13750,   0.13750,   0.13750  )

     Band symmetry, C_3v (3m)   point group:

     e(  1 -  1) =   -117.68156  eV     1   --> A_1  L_1       
     e(  2 -  4) =    -71.83634  eV     3   --> A_1  L_1       
     e(  2 -  4) =    -71.83634  eV     3   --> E    L_3       
     e(  5 -  5) =     -5.65553  eV     1   --> A_1  L_1       
     e(  6 -  6) =      0.94357  eV     1   --> A_1  L_1       
     e(  7 -  8) =      0.96223  eV     2   --> E    L_3       
     e(  9 - 10) =      1.40648  eV     2   --> E    L_3       
     e( 11 - 11) =      5.93625  eV     1   --> A_1  L_1       
     e( 12 - 13) =      7.03364  eV     2   --> E    L_3       
     e( 14 - 14) =     10.14222  eV     1   --> A_1  L_1       
     e( 15 - 15) =     13.53487  eV     1   --> A_1  L_1       
     e( 16 - 17) =     13.93042  eV     2   --> E    L_3       

 **************************************************************************

 **************************************************************************

                    xk=(  -0.15000,   0.15000,   0.15000  )

     Band symmetry, C_3v (3m)   point group:

     e(  1 -  1) =   -117.68156  eV     1   --> A_1  L_1       
     e(  2 -  4) =    -71.83635  eV     3   --> A_1  L_1       
     e(  2 -  4) =    -71.83635  eV     3   --> E    L_3       
     e(  5 -  5) =     -5.63103  eV     1   --> A_1  L_1       
     e(  6 -  6) =      0.94606  eV     1   --> A_1  L_1       
     e(  7 -  8) =      0.96636  eV     2   --> E    L_3       
     e(  9 - 10) =      1.40666  eV     2   --> E    L_3       
     e( 11 - 11) =      5.76902  eV     1   --> A_1  L_1       
     e( 12 - 13) =      7.00541  eV     2   --> E    L_3       
     e( 14 - 14) =     10.23306  eV     1   --> A_1  L_1       
     e( 15 - 15) =     13.55010  eV     1   --> A_1  L_1       
     e( 16 - 17) =     13.97391  eV     2   --> E    L_3       

 **************************************************************************

 **************************************************************************

                    xk=(  -0.16250,   0.16250,   0.16250  )

     Band symmetry, C_3v (3m)   point group:

     e(  1 -  1) =   -117.68156  eV     1   --> A_1  L_1       
     e(  2 -  4) =    -71.83635  eV     3   --> A_1  L_1       
     e(  2 -  4) =    -71.83635  eV     3   --> E    L_3       
     e(  5 -  5) =     -5.60485  eV     1   --> A_1  L_1       
     e(  6 -  6) =      0.94874  eV     1   --> A_1  L_1       
     e(  7 -  8) =      0.97065  eV     2   --> E    L_3       
     e(  9 - 10) =      1.40668  eV     2   --> E    L_3       
     e( 11 - 11) =      5.60008  eV     1   --> A_1  L_1       
     e( 12 - 13) =      6.97587  eV     2   --> E    L_3       
     e( 14 - 14) =     10.31540  eV     1   --> A_1  L_1       
     e( 15 - 15) =     13.57633  eV     1   --> A_1  L_1       
     e( 16 - 17) =     14.01717  eV     2   --> E    L_3       

 **************************************************************************

 **************************************************************************

                    xk=(  -0.17500,   0.17500,   0.17500  )

     Band symmetry, C_3v (3m)   point group:

     e(  1 -  1) =   -117.68156  eV     1   --> A_1  L_1       
     e(  2 -  4) =    -71.83636  eV     3   --> A_1  L_1       
     e(  2 -  4) =    -71.83636  eV     3   --> E    L_3       
     e(  5 -  5) =     -5.57710  eV     1   --> A_1  L_1       
     e(  6 -  6) =      0.95210  eV     1   --> A_1  L_1       
     e(  7 -  8) =      0.97481  eV     2   --> E    L_3       
     e(  9 - 10) =      1.40643  eV     2   --> E    L_3       
     e( 11 - 11) =      5.43021  eV     1   --> A_1  L_1       
     e( 12 - 13) =      6.94506  eV     2   --> E    L_3       
     e( 14 - 14) =     10.38829  eV     1   --> A_1  L_1       
     e( 15 - 15) =     13.61452  eV     1   --> A_1  L_1       
     e( 16 - 17) =     14.05935  eV     2   --> E    L_3       

 **************************************************************************

 **************************************************************************

                    xk=(  -0.18750,   0.18750,   0.18750  )

     Band symmetry, C_3v (3m)   point group:

     e(  1 -  1) =   -117.68156  eV     1   --> A_1  L_1       
     e(  2 -  4) =    -71.83637  eV     3   --> A_1  L_1       
     e(  2 -  4) =    -71.83637  eV     3   --> E    L_3       
     e(  5 -  5) =     -5.54789  eV     1   --> A_1  L_1       
     e(  6 -  6) =      0.95598  eV     1   --> A_1  L_1       
     e(  7 -  8) =      0.97925  eV     2   --> E    L_3       
     e(  9 - 10) =      1.40650  eV     2   --> E    L_3       
     e( 11 - 11) =      5.25982  eV     1   --> A_1  L_1       
     e( 12 - 13) =      6.91355  eV     2   --> E    L_3       
     e( 14 - 14) =     10.45107  eV     1   --> A_1  L_1       
     e( 15 - 15) =     13.66535  eV     1   --> A_1  L_1       
     e( 16 - 17) =     14.09974  eV     2   --> E    L_3       

 **************************************************************************

 **************************************************************************

                    xk=(  -0.20000,   0.20000,   0.20000  )

     Band symmetry, C_3v (3m)   point group:

     e(  1 -  1) =   -117.68156  eV     1   --> A_1  L_1       
     e(  2 -  4) =    -71.83637  eV     3   --> A_1  L_1       
     e(  2 -  4) =    -71.83637  eV     3   --> E    L_3       
     e(  5 -  5) =     -5.51737  eV     1   --> A_1  L_1       
     e(  6 -  6) =      0.96114  eV     1   --> A_1  L_1       
     e(  7 -  8) =      0.98386  eV     2   --> E    L_3       
     e(  9 - 10) =      1.40685  eV     2   --> E    L_3       
     e( 11 - 11) =      5.08981  eV     1   --> A_1  L_1       
     e( 12 - 13) =      6.88150  eV     2   --> E    L_3       
     e( 14 - 14) =     10.50364  eV     1   --> A_1  L_1       
     e( 15 - 15) =     13.72905  eV     1   --> A_1  L_1       
     e( 16 - 17) =     14.13748  eV     2   --> E    L_3       

 **************************************************************************

 **************************************************************************

                    xk=(  -0.21250,   0.21250,   0.21250  )

     Band symmetry, C_3v (3m)   point group:

     e(  1 -  1) =   -117.68156  eV     1   --> A_1  L_1       
     e(  2 -  4) =    -71.83638  eV     3   --> A_1  L_1       
     e(  2 -  4) =    -71.83638  eV     3   --> E    L_3       
     e(  5 -  5) =     -5.48568  eV     1   --> A_1  L_1       
     e(  6 -  6) =      0.96739  eV     1   --> A_1  L_1       
     e(  7 -  8) =      0.98852  eV     2   --> E    L_3       
     e(  9 - 10) =      1.40733  eV     2   --> E    L_3       
     e( 11 - 11) =      4.92044  eV     1   --> A_1  L_1       
     e( 12 - 13) =      6.84906  eV     2   --> E    L_3       
     e( 14 - 14) =     10.54611  eV     1   --> A_1  L_1       
     e( 15 - 15) =     13.80534  eV     1   --> A_1  L_1       
     e( 16 - 17) =     14.17184  eV     2   --> E    L_3       

 **************************************************************************

 **************************************************************************

                    xk=(  -0.22500,   0.22500,   0.22500  )

     Band symmetry, C_3v (3m)   point group:

     e(  1 -  1) =   -117.68156  eV     1   --> A_1  L_1       
     e(  2 -  4) =    -71.83638  eV     3   --> A_1  L_1       
     e(  2 -  4) =    -71.83638  eV     3   --> E    L_3       
     e(  5 -  5) =     -5.45298  eV     1   --> A_1  L_1       
     e(  6 -  6) =      0.97536  eV     1   --> A_1  L_1       
     e(  7 -  8) =      0.99338  eV     2   --> E    L_3       
     e(  9 - 10) =      1.40837  eV     2   --> E    L_3       
     e( 11 - 11) =      4.75233  eV     1   --> A_1  L_1       
     e( 12 - 13) =      6.81650  eV     2   --> E    L_3       
     e( 14 - 14) =     10.57899  eV     1   --> A_1  L_1       
     e( 15 - 15) =     13.89431  eV     1   --> A_1  L_1       
     e( 16 - 17) =     14.20228  eV     2   --> E    L_3       

 **************************************************************************

 **************************************************************************

                    xk=(  -0.23750,   0.23750,   0.23750  )

     Band symmetry, C_3v (3m)   point group:

     e(  1 -  1) =   -117.68156  eV     1   --> A_1  L_1       
     e(  2 -  4) =    -71.83638  eV     3   --> A_1  L_1       
     e(  2 -  4) =    -71.83638  eV     3   --> E    L_3       
     e(  5 -  5) =     -5.41945  eV     1   --> A_1  L_1       
     e(  6 -  6) =      0.98407  eV     1   --> A_1  L_1       
     e(  7 -  8) =      0.99772  eV     2   --> E    L_3       
     e(  9 - 10) =      1.40896  eV     2   --> E    L_3       
     e( 11 - 11) =      4.58539  eV     1   --> A_1  L_1       
     e( 12 - 13) =      6.78374  eV     2   --> E    L_3       
     e( 14 - 14) =     10.60300  eV     1   --> A_1  L_1       
     e( 15 - 15) =     13.99352  eV     1   --> A_1  L_1       
     e( 16 - 17) =     14.22816  eV     2   --> E    L_3       

 **************************************************************************

 **************************************************************************

                    xk=(  -0.25000,   0.25000,   0.25000  )

     Band symmetry, C_3v (3m)   point group:

     e(  1 -  1) =   -117.68156  eV     1   --> A_1  L_1       
     e(  2 -  4) =    -71.83639  eV     3   --> A_1  L_1       
     e(  2 -  4) =    -71.83639  eV     3   --> E    L_3       
     e(  5 -  5) =     -5.38525  eV     1   --> A_1  L_1       
     e(  6 -  6) =      0.99388  eV     1   --> A_1  L_1       
     e(  7 -  8) =      1.00220  eV     2   --> E    L_3       
     e(  9 - 10) =      1.40974  eV     2   --> E    L_3       
     e( 11 - 11) =      4.41986  eV     1   --> A_1  L_1       
     e( 12 - 13) =      6.75132  eV     2   --> E    L_3       
     e( 14 - 14) =     10.61903  eV     1   --> A_1  L_1       
     e( 15 - 15) =     14.10248  eV     1   --> A_1  L_1       
     e( 16 - 17) =     14.24934  eV     2   --> E    L_3       

 **************************************************************************

 **************************************************************************

                    xk=(  -0.26250,   0.26250,   0.26250  )

     Band symmetry, C_3v (3m)   point group:

     e(  1 -  1) =   -117.68156  eV     1   --> A_1  L_1       
     e(  2 -  4) =    -71.83640  eV     3   --> A_1  L_1       
     e(  2 -  4) =    -71.83640  eV     3   --> E    L_3       
[...]

                    xk=(  -0.26250,   0.00000,   0.26250  )

     Band symmetry, C_s (m)     point group:

     e(  1 -  1) =   -117.68156  eV     1   --> A'             
     e(  2 -  4) =    -71.83637  eV     3   -->   2 A'             
     e(  2 -  4) =    -71.83637  eV     3   --> A''            
     e(  5 -  5) =     -5.47833  eV     1   --> A'             
     e(  6 -  6) =      0.95533  eV     1   --> A'             
     e(  7 -  7) =      0.98688  eV     1   --> A''            
     e(  8 -  8) =      1.00510  eV     1   --> A'             
     e(  9 -  9) =      1.39255  eV     1   --> A''            
     e( 10 - 10) =      1.42104  eV     1   --> A'             
     e( 11 - 11) =      5.12262  eV     1   --> A'             
     e( 12 - 12) =      6.30610  eV     1   --> A'             
     e( 13 - 13) =      6.98484  eV     1   --> A''            
     e( 14 - 14) =     10.91210  eV     1   --> A'             
     e( 15 - 15) =     13.33164  eV     1   --> A'             
     e( 16 - 16) =     14.11630  eV     1   --> A''            
     e( 17 - 17) =     14.45410  eV     1   --> A'             

 **************************************************************************

 **************************************************************************

                    xk=(  -0.24375,   0.00000,   0.24375  )

     Band symmetry, C_s (m)     point group:

     e(  1 -  1) =   -117.68156  eV     1   --> A'             
     e(  2 -  4) =    -71.83636  eV     3   -->   2 A'             
     e(  2 -  4) =    -71.83636  eV     3   --> A''            
     e(  5 -  5) =     -5.51793  eV     1   --> A'             
     e(  6 -  6) =      0.94984  eV     1   --> A'             
     e(  7 -  7) =      0.98058  eV     1   --> A''            
     e(  8 -  8) =      0.99783  eV     1   --> A'             
     e(  9 -  9) =      1.39388  eV     1   --> A''            
     e( 10 - 10) =      1.41886  eV     1   --> A'             
     e( 11 - 11) =      5.29904  eV     1   --> A'             
     e( 12 - 12) =      6.41896  eV     1   --> A'             
     e( 13 - 13) =      7.01702  eV     1   --> A''            
     e( 14 - 14) =     10.78092  eV     1   --> A'             
     e( 15 - 15) =     13.32133  eV     1   --> A'             
     e( 16 - 16) =     14.05581  eV     1   --> A''            
     e( 17 - 17) =     14.42006  eV     1   --> A'             

 **************************************************************************

 **************************************************************************

                    xk=(  -0.22500,   0.00000,   0.22500  )

     Band symmetry, C_s (m)     point group:

     e(  1 -  1) =   -117.68156  eV     1   --> A'             
     e(  2 -  4) =    -71.83636  eV     3   -->   2 A'             
     e(  2 -  4) =    -71.83636  eV     3   --> A''            
     e(  5 -  5) =     -5.55558  eV     1   --> A'             
     e(  6 -  6) =      0.94529  eV     1   --> A'             
     e(  7 -  7) =      0.97463  eV     1   --> A''            
     e(  8 -  8) =      0.99051  eV     1   --> A'             
     e(  9 -  9) =      1.39531  eV     1   --> A''            
     e( 10 - 10) =      1.41691  eV     1   --> A'             
     e( 11 - 11) =      5.47824  eV     1   --> A'             
     e( 12 - 12) =      6.52659  eV     1   --> A'             
     e( 13 - 13) =      7.04626  eV     1   --> A''            
     e( 14 - 14) =     10.64556  eV     1   --> A'             
     e( 15 - 15) =     13.32139  eV     1   --> A'             
     e( 16 - 16) =     13.99849  eV     1   --> A''            
     e( 17 - 17) =     14.36787  eV     1   --> A'             

 **************************************************************************

 **************************************************************************

                    xk=(  -0.20625,   0.00000,   0.20625  )

     Band symmetry, C_s (m)     point group:

     e(  1 -  1) =   -117.68156  eV     1   --> A'             
     e(  2 -  4) =    -71.83635  eV     3   -->   2 A'             
     e(  2 -  4) =    -71.83635  eV     3   --> A''            
     e(  5 -  5) =     -5.59104  eV     1   --> A'             
     e(  6 -  6) =      0.94235  eV     1   --> A'             
     e(  7 -  7) =      0.96927  eV     1   --> A''            
     e(  8 -  8) =      0.98360  eV     1   --> A'             
     e(  9 -  9) =      1.39722  eV     1   --> A''            
     e( 10 - 10) =      1.41551  eV     1   --> A'             
     e( 11 - 11) =      5.66009  eV     1   --> A'             
     e( 12 - 12) =      6.62843  eV     1   --> A'             
     e( 13 - 13) =      7.07280  eV     1   --> A''            
     e( 14 - 14) =     10.50641  eV     1   --> A'             
     e( 15 - 15) =     13.33173  eV     1   --> A'             
     e( 16 - 16) =     13.94466  eV     1   --> A''            
     e( 17 - 17) =     14.30116  eV     1   --> A'             

 **************************************************************************

 **************************************************************************

                    xk=(  -0.18750,   0.00000,   0.18750  )

     Band symmetry, C_s (m)     point group:

     e(  1 -  1) =   -117.68156  eV     1   --> A'             
     e(  2 -  4) =    -71.83635  eV     3   -->   2 A'             
     e(  2 -  4) =    -71.83635  eV     3   --> A''            
     e(  5 -  5) =     -5.62412  eV     1   --> A'             
     e(  6 -  6) =      0.93974  eV     1   --> A'             
     e(  7 -  7) =      0.96400  eV     1   --> A''            
     e(  8 -  8) =      0.97683  eV     1   --> A'             
     e(  9 -  9) =      1.39843  eV     1   --> A''            
     e( 10 - 10) =      1.41418  eV     1   --> A'             
     e( 11 - 11) =      5.84294  eV     1   --> A'             
     e( 12 - 12) =      6.72359  eV     1   --> A'             
     e( 13 - 13) =      7.09636  eV     1   --> A''            
     e( 14 - 14) =     10.36390  eV     1   --> A'             
     e( 15 - 15) =     13.35064  eV     1   --> A'             
     e( 16 - 16) =     13.89440  eV     1   --> A''            
     e( 17 - 17) =     14.22336  eV     1   --> A'             

 **************************************************************************

 **************************************************************************

                    xk=(  -0.16875,   0.00000,   0.16875  )

     Band symmetry, C_s (m)     point group:

     e(  1 -  1) =   -117.68156  eV     1   --> A'             
     e(  2 -  4) =    -71.83635  eV     3   -->   2 A'             
     e(  2 -  4) =    -71.83635  eV     3   --> A''            
     e(  5 -  5) =     -5.65461  eV     1   --> A'             
     e(  6 -  6) =      0.93802  eV     1   --> A'             
     e(  7 -  7) =      0.95922  eV     1   --> A''            
     e(  8 -  8) =      0.96980  eV     1   --> A'             
     e(  9 -  9) =      1.39971  eV     1   --> A''            
     e( 10 - 10) =      1.41273  eV     1   --> A'             
     e( 11 - 11) =      6.02608  eV     1   --> A'             
     e( 12 - 12) =      6.81112  eV     1   --> A'             
     e( 13 - 13) =      7.11730  eV     1   --> A''            
     e( 14 - 14) =     10.21867  eV     1   --> A'             
     e( 15 - 15) =     13.37722  eV     1   --> A'             
     e( 16 - 16) =     13.84813  eV     1   --> A''            
     e( 17 - 17) =     14.13899  eV     1   --> A'             

 **************************************************************************

 **************************************************************************

                    xk=(  -0.15000,   0.00000,   0.15000  )

     Band symmetry, C_s (m)     point group:

     e(  1 -  1) =   -117.68156  eV     1   --> A'             
     e(  2 -  4) =    -71.83634  eV     3   -->   2 A'             
     e(  2 -  4) =    -71.83634  eV     3   --> A''            
     e(  5 -  5) =     -5.68235  eV     1   --> A'             
     e(  6 -  6) =      0.93734  eV     1   --> A'             
     e(  7 -  7) =      0.95514  eV     1   --> A''            
     e(  8 -  8) =      0.96365  eV     1   --> A'             
     e(  9 -  9) =      1.40172  eV     1   --> A''            
     e( 10 - 10) =      1.41178  eV     1   --> A'             
     e( 11 - 11) =      6.20834  eV     1   --> A'             
     e( 12 - 12) =      6.89097  eV     1   --> A'             
     e( 13 - 13) =      7.13588  eV     1   --> A''            
     e( 14 - 14) =     10.07177  eV     1   --> A'             
     e( 15 - 15) =     13.41034  eV     1   --> A'             
     e( 16 - 16) =     13.80618  eV     1   --> A''            
     e( 17 - 17) =     14.05279  eV     1   --> A'             

 **************************************************************************

 **************************************************************************

                    xk=(  -0.13125,   0.00000,   0.13125  )

     Band symmetry, C_s (m)     point group:

     e(  1 -  1) =   -117.68156  eV     1   --> A'             
     e(  2 -  4) =    -71.83634  eV     3   -->   2 A'             
     e(  2 -  4) =    -71.83634  eV     3   --> A''            
     e(  5 -  5) =     -5.70719  eV     1   --> A'             
     e(  6 -  6) =      0.93705  eV     1   --> A'             
     e(  7 -  7) =      0.95150  eV     1   --> A''            
     e(  8 -  8) =      0.95798  eV     1   --> A'             
     e(  9 -  9) =      1.40317  eV     1   --> A''            
     e( 10 - 10) =      1.41097  eV     1   --> A'             
     e( 11 - 11) =      6.38748  eV     1   --> A'             
     e( 12 - 12) =      6.96240  eV     1   --> A'             
     e( 13 - 13) =      7.15190  eV     1   --> A''            
     e( 14 - 14) =      9.92463  eV     1   --> A'             
     e( 15 - 15) =     13.44782  eV     1   --> A'             
     e( 16 - 16) =     13.76861  eV     1   --> A''            
     e( 17 - 17) =     13.96832  eV     1   --> A'             

 **************************************************************************

 **************************************************************************

                    xk=(  -0.11250,   0.00000,   0.11250  )

     Band symmetry, C_s (m)     point group:

     e(  1 -  1) =   -117.68156  eV     1   --> A'             
     e(  2 -  4) =    -71.83633  eV     3   -->   2 A'             
     e(  2 -  4) =    -71.83633  eV     3   --> A''            
     e(  5 -  5) =     -5.72898  eV     1   --> A'             
     e(  6 -  6) =      0.93759  eV     1   --> A'             
     e(  7 -  7) =      0.94829  eV     1   --> A''            
     e(  8 -  8) =      0.95305  eV     1   --> A'             
     e(  9 -  9) =      1.40494  eV     1   --> A''            
     e( 10 - 10) =      1.41042  eV     1   --> A'             
     e( 11 - 11) =      6.56134  eV     1   --> A'             
     e( 12 - 12) =      7.02517  eV     1   --> A'             
     e( 13 - 13) =      7.16565  eV     1   --> A''            
     e( 14 - 14) =      9.77941  eV     1   --> A'             
     e( 15 - 15) =     13.48763  eV     1   --> A'             
     e( 16 - 16) =     13.73572  eV     1   --> A''            
     e( 17 - 17) =     13.88905  eV     1   --> A'             

 **************************************************************************

 **************************************************************************

                    xk=(  -0.09375,   0.00000,   0.09375  )

     Band symmetry, C_s (m)     point group:

     e(  1 -  1) =   -117.68156  eV     1   --> A'             
     e(  2 -  4) =    -71.83632  eV     3   -->   2 A'             
     e(  2 -  4) =    -71.83632  eV     3   --> A''            
     e(  5 -  5) =     -5.74762  eV     1   --> A'             
     e(  6 -  6) =      0.93780  eV     1   --> A'             
     e(  7 -  7) =      0.94537  eV     1   --> A''            
     e(  8 -  8) =      0.94883  eV     1   --> A'             
     e(  9 -  9) =      1.40634  eV     1   --> A''            
     e( 10 - 10) =      1.41003  eV     1   --> A'             
     e( 11 - 11) =      6.72590  eV     1   --> A'             
     e( 12 - 12) =      7.07882  eV     1   --> A'             
     e( 13 - 13) =      7.17694  eV     1   --> A''            
     e( 14 - 14) =      9.63916  eV     1   --> A'             
     e( 15 - 15) =     13.52730  eV     1   --> A'             
     e( 16 - 16) =     13.70751  eV     1   --> A''            
     e( 17 - 17) =     13.81778  eV     1   --> A'             

 **************************************************************************

 **************************************************************************

                    xk=(  -0.07500,   0.00000,   0.07500  )

     Band symmetry, C_s (m)     point group:

     e(  1 -  1) =   -117.68156  eV     1   --> A'             
     e(  2 -  4) =    -71.83632  eV     3   -->   2 A'             
     e(  2 -  4) =    -71.83632  eV     3   --> A''            
     e(  5 -  5) =     -5.76299  eV     1   --> A'             
     e(  6 -  6) =      0.93790  eV     1   --> A'             
     e(  7 -  7) =      0.94288  eV     1   --> A''            
     e(  8 -  8) =      0.94526  eV     1   --> A'             
     e(  9 -  9) =      1.40724  eV     1   --> A''            
     e( 10 - 10) =      1.40922  eV     1   --> A'             
     e( 11 - 11) =      6.87673  eV     1   --> A'             
     e( 12 - 12) =      7.12296  eV     1   --> A'             
     e( 13 - 13) =      7.18602  eV     1   --> A''            
     e( 14 - 14) =      9.50827  eV     1   --> A'             
     e( 15 - 15) =     13.56434  eV     1   --> A'             
     e( 16 - 16) =     13.68420  eV     1   --> A''            
     e( 17 - 17) =     13.75668  eV     1   --> A'             

 **************************************************************************

 **************************************************************************

                    xk=(  -0.05625,   0.00000,   0.05625  )

     Band symmetry, C_s (m)     point group:

     e(  1 -  1) =   -117.68156  eV     1   --> A'             
     e(  2 -  4) =    -71.83632  eV     3   -->   2 A'             
     e(  2 -  4) =    -71.83632  eV     3   --> A''            
     e(  5 -  5) =     -5.77504  eV     1   --> A'             
     e(  6 -  6) =      0.93814  eV     1   --> A'             
     e(  7 -  7) =      0.94098  eV     1   --> A''            
     e(  8 -  8) =      0.94249  eV     1   --> A'             
     e(  9 -  9) =      1.40797  eV     1   --> A''            
     e( 10 - 10) =      1.40895  eV     1   --> A'             
     e( 11 - 11) =      7.00785  eV     1   --> A'             
     e( 12 - 12) =      7.15750  eV     1   --> A'             
     e( 13 - 13) =      7.19303  eV     1   --> A''            
     e( 14 - 14) =      9.39281  eV     1   --> A'             
     e( 15 - 15) =     13.59644  eV     1   --> A'             
     e( 16 - 16) =     13.66597  eV     1   --> A''            
     e( 17 - 17) =     13.70758  eV     1   --> A'             

 **************************************************************************

 **************************************************************************

                    xk=(  -0.03750,   0.00000,   0.03750  )

     Band symmetry, C_s (m)     point group:

     e(  1 -  1) =   -117.68156  eV     1   --> A'             
     e(  2 -  4) =    -71.83632  eV     3   -->   2 A'             
     e(  2 -  4) =    -71.83632  eV     3   --> A''            
     e(  5 -  5) =     -5.78369  eV     1   --> A'             
     e(  6 -  6) =      0.93834  eV     1   --> A'             
     e(  7 -  7) =      0.93963  eV     1   --> A''            
     e(  8 -  8) =      0.94027  eV     1   --> A'             
     e(  9 -  9) =      1.40837  eV     1   --> A''            
     e( 10 - 10) =      1.40863  eV     1   --> A'             
     e( 11 - 11) =      7.11137  eV     1   --> A'             
     e( 12 - 12) =      7.18212  eV     1   --> A'             
     e( 13 - 13) =      7.19798  eV     1   --> A''            
     e( 14 - 14) =      9.30051  eV     1   --> A'             
     e( 15 - 15) =     13.62128  eV     1   --> A'             
     e( 16 - 16) =     13.65287  eV     1   --> A''            
     e( 17 - 17) =     13.67160  eV     1   --> A'             

 **************************************************************************

 **************************************************************************

                    xk=(  -0.01875,   0.00000,   0.01875  )

     Band symmetry, C_s (m)     point group:

     e(  1 -  1) =   -117.68156  eV     1   --> A'             
     e(  2 -  4) =    -71.83632  eV     3   -->   2 A'             
     e(  2 -  4) =    -71.83632  eV     3   --> A''            
     e(  5 -  5) =     -5.78889  eV     1   --> A'             
     e(  6 -  6) =      0.93841  eV     1   --> A'             
     e(  7 -  7) =      0.93873  eV     1   --> A''            
     e(  8 -  8) =      0.93889  eV     1   --> A'             
     e(  9 -  9) =      1.40818  eV     1   --> A''            
     e( 10 - 10) =      1.40833  eV     1   --> A'             
     e( 11 - 11) =      7.17847  eV     1   --> A'             
     e( 12 - 12) =      7.19691  eV     1   --> A'             
     e( 13 - 13) =      7.20088  eV     1   --> A''            
     e( 14 - 14) =      9.24008  eV     1   --> A'             
     e( 15 - 15) =     13.63693  eV     1   --> A'             
     e( 16 - 16) =     13.64494  eV     1   --> A''            
     e( 17 - 17) =     13.64966  eV     1   --> A'             

 **************************************************************************

 **************************************************************************

                    xk=(   0.00000,   0.00000,   0.00000  )

     point group T_d (-43m) 
     there are  5 classes
     the character table:

       E     8C3   3C2   6S4   6s_d 
A_1    1.00  1.00  1.00  1.00  1.00
A_2    1.00  1.00  1.00 -1.00 -1.00
E      2.00 -1.00  2.00  0.00  0.00
T_1    3.00  0.00 -1.00  1.00 -1.00
T_2    3.00  0.00 -1.00 -1.00  1.00

     the symmetry operations in each class and the name of the first element:

     E        1
                                                                 
     8C3      5    7    8    6   12    9   10   11
                                                                 
     3C2      2    3    4
                                                                 
     6S4     15   16   20   19   23   24
                                                                 
     6s_d    13   14   17   18   21   22
                                                                 

     Band symmetry, T_d (-43m)  point group:

     e(  1 -  1) =   -117.68156  eV     1   --> A_1  G_1  P_1  
     e(  2 -  4) =    -71.83632  eV     3   --> T_2  G_15 P_4  
     e(  5 -  5) =     -5.79063  eV     1   --> A_1  G_1  P_1  
     e(  6 -  8) =      0.93846  eV     3   --> T_2  G_15 P_4  
     e(  9 - 10) =      1.40828  eV     2   --> E    G_12 P_3  
     e( 11 - 13) =      7.20186  eV     3   --> T_2  G_15 P_4  
     e( 14 - 14) =      9.21894  eV     1   --> A_1  G_1  P_1  
     e( 15 - 17) =     13.64231  eV     3   --> T_2  G_15 P_4  

 **************************************************************************

     BANDS        :      7.47s CPU      7.57s WALL


   This run was terminated on:  21:24:49   8Jun2024            

=------------------------------------------------------------------------------=
   JOB DONE.
=------------------------------------------------------------------------------=
