
     Program BANDS v.7.2 starts on 30May2024 at 17:56:31 

     This program is part of the open-source Quantum ESPRESSO suite
     for quantum simulation of materials; please cite
         "P. Giannozzi et al., J. Phys.:Condens. Matter 21 395502 (2009);
         "P. Giannozzi et al., J. Phys.:Condens. Matter 29 465901 (2017);
         "P. Giannozzi et al., J. Chem. Phys. 152 154105 (2020);
          URL http://www.quantum-espresso.org", 
     in publications or presentations arising from this work. More details at
     http://www.quantum-espresso.org/quote

     Serial version
     8995 MiB available memory on the printing compute node when the environment starts


     Reading xml data from directory:

     ./SCRATCH/zns.save/

     IMPORTANT: XC functional enforced from input :
     Exchange-correlation= PZ
                           (   1   1   0   0   0   0   0)
     Any further DFT definition will be discarded
     Please, verify this is what you really want


     G-vector sticks info
     --------------------
     sticks:   dense  smooth     PW     G-vecs:    dense   smooth      PW
     Sum         745     745    223                13323    13323    2133

     Using Slab Decomposition

     Reading collected, re-writing distributed wavefunctions
     high-symmetry point:  0.0000 0.0000 1.0000   x coordinate   0.0000
     high-symmetry point:  0.0000 0.0000 0.0000   x coordinate   1.0000
     high-symmetry point: -0.5000 0.5000 0.5000   x coordinate   1.8660
     high-symmetry point: -0.5000 0.0000 1.0000   x coordinate   2.5731
     high-symmetry point: -0.7500 0.0000 0.7500   x coordinate   2.9267
     high-symmetry point:  0.0000 0.0000 0.0000   x coordinate   3.9873

     Plottable bands (eV) written to file bands_zns.dat.gnu
     Bands written to file bands_zns.dat

 **************************************************************************

                    xk=(   0.00000,   0.00000,   1.00000  )

     point group D_2d (-42m)
     there are  5 classes
     the character table:

       E     2S4   C2    2C2'  2s_d 
A_1    1.00  1.00  1.00  1.00  1.00
A_2    1.00  1.00  1.00 -1.00 -1.00
B_1    1.00 -1.00  1.00  1.00 -1.00
B_2    1.00 -1.00  1.00 -1.00  1.00
E      2.00  0.00 -2.00  0.00  0.00

     the symmetry operations in each class and the name of the first element:

     E        1
                                                                 
     2S4      7    8
                                                                 
     C2       2
                                                                 
     2C2'     3    4
                                                                 
     2s_d     5    6
                                                                 

     Band symmetry, D_2d (-42m) point group:

     e(  1 -  1) =     -6.90671  eV     1   --> B_2  X_3  W_2  
     e(  2 -  2) =     -0.94148  eV     1   --> A_1  X_1  W_1  
     e(  3 -  4) =      2.23801  eV     2   --> E    X_5  W_3  
     e(  5 -  5) =      7.92667  eV     1   --> B_2  X_3  W_2  
     e(  6 -  6) =      9.14591  eV     1   --> A_1  X_1  W_1  
     e(  7 -  7) =     18.80883  eV     1   --> A_1  X_1  W_1  
     e(  8 -  9) =     19.14994  eV     2   --> E    X_5  W_3  
     e( 10 - 10) =     20.06486  eV     1   --> A_2  X_4  W_2' 

 **************************************************************************

 **************************************************************************

                    xk=(   0.00000,   0.00000,   0.97500  )

     point group C_2v (mm2) 
     there are  4 classes
     the character table:

       E     C2    s_v   s_v' 
A_1    1.00  1.00  1.00  1.00
A_2    1.00  1.00 -1.00 -1.00
B_1    1.00 -1.00  1.00 -1.00
B_2    1.00 -1.00 -1.00  1.00

     the symmetry operations in each class and the name of the first element:

     E        1
                                                                 
     C2       2
                                                                 
     s_v      3
                                                                 
     s_v'     4
                                                                 

     Band symmetry, C_2v (mm2)  point group:

     e(  1 -  1) =     -6.91283  eV     1   --> A_1  D_1  S_1  
     e(  2 -  2) =     -0.93224  eV     1   --> A_1  D_1  S_1  
     e(  3 -  4) =      2.24090  eV     2   --> B_1  D_3  S_3  
     e(  3 -  4) =      2.24090  eV     2   --> B_2  D_4  S_4  
     e(  5 -  5) =      7.93197  eV     1   --> A_1  D_1  S_1  
     e(  6 -  6) =      9.14989  eV     1   --> A_1  D_1  S_1  
     e(  7 -  7) =     18.78914  eV     1   --> A_1  D_1  S_1  
     e(  8 -  9) =     19.08799  eV     2   --> B_1  D_3  S_3  
     e(  8 -  9) =     19.08799  eV     2   --> B_2  D_4  S_4  
     e( 10 - 10) =     20.05558  eV     1   --> A_2  D_2  S_2  

 **************************************************************************

 **************************************************************************

                    xk=(   0.00000,   0.00000,   0.95000  )

     Band symmetry, C_2v (mm2)  point group:

     e(  1 -  1) =     -6.93103  eV     1   --> A_1  D_1  S_1  
     e(  2 -  2) =     -0.90467  eV     1   --> A_1  D_1  S_1  
     e(  3 -  4) =      2.24957  eV     2   --> B_1  D_3  S_3  
     e(  3 -  4) =      2.24957  eV     2   --> B_2  D_4  S_4  
     e(  5 -  5) =      7.94786  eV     1   --> A_1  D_1  S_1  
     e(  6 -  6) =      9.16184  eV     1   --> A_1  D_1  S_1  
     e(  7 -  7) =     18.73084  eV     1   --> A_1  D_1  S_1  
     e(  8 -  9) =     18.92947  eV     2   --> B_1  D_3  S_3  
     e(  8 -  9) =     18.92947  eV     2   --> B_2  D_4  S_4  
     e( 10 - 10) =     20.02806  eV     1   --> A_2  D_2  S_2  

 **************************************************************************

 **************************************************************************

                    xk=(   0.00000,   0.00000,   0.92500  )

     Band symmetry, C_2v (mm2)  point group:

     e(  1 -  1) =     -6.96089  eV     1   --> A_1  D_1  S_1  
     e(  2 -  2) =     -0.85926  eV     1   --> A_1  D_1  S_1  
     e(  3 -  4) =      2.26399  eV     2   --> B_1  D_3  S_3  
     e(  3 -  4) =      2.26399  eV     2   --> B_2  D_4  S_4  
     e(  5 -  5) =      7.97423  eV     1   --> A_1  D_1  S_1  
     e(  6 -  6) =      9.18179  eV     1   --> A_1  D_1  S_1  
     e(  7 -  7) =     18.63604  eV     1   --> A_1  D_1  S_1  
     e(  8 -  9) =     18.71824  eV     2   --> B_1  D_3  S_3  
     e(  8 -  9) =     18.71824  eV     2   --> B_2  D_4  S_4  
     e( 10 - 10) =     19.98318  eV     1   --> A_2  D_2  S_2  

 **************************************************************************

 **************************************************************************

                    xk=(   0.00000,   0.00000,   0.90000  )

     Band symmetry, C_2v (mm2)  point group:

     e(  1 -  1) =     -7.00171  eV     1   --> A_1  D_1  S_1  
     e(  2 -  2) =     -0.79658  eV     1   --> A_1  D_1  S_1  
     e(  3 -  4) =      2.28415  eV     2   --> B_1  D_3  S_3  
     e(  3 -  4) =      2.28415  eV     2   --> B_2  D_4  S_4  
     e(  5 -  5) =      8.01101  eV     1   --> A_1  D_1  S_1  
     e(  6 -  6) =      9.20982  eV     1   --> A_1  D_1  S_1  
     e(  7 -  8) =     18.48168  eV     2   --> B_1  D_3  S_3  
     e(  7 -  8) =     18.48168  eV     2   --> B_2  D_4  S_4  
     e(  9 -  9) =     18.50818  eV     1   --> A_1  D_1  S_1  
     e( 10 - 10) =     19.92234  eV     1   --> A_2  D_2  S_2  

 **************************************************************************

 **************************************************************************

                    xk=(   0.00000,   0.00000,   0.87500  )

     Band symmetry, C_2v (mm2)  point group:

     e(  1 -  1) =     -7.05266  eV     1   --> A_1  D_1  S_1  
     e(  2 -  2) =     -0.71771  eV     1   --> A_1  D_1  S_1  
     e(  3 -  4) =      2.30997  eV     2   --> B_1  D_3  S_3  
     e(  3 -  4) =      2.30997  eV     2   --> B_2  D_4  S_4  
     e(  5 -  5) =      8.05793  eV     1   --> A_1  D_1  S_1  
     e(  6 -  6) =      9.24596  eV     1   --> A_1  D_1  S_1  
     e(  7 -  8) =     18.23279  eV     2   --> B_1  D_3  S_3  
     e(  7 -  8) =     18.23279  eV     2   --> B_2  D_4  S_4  
     e(  9 -  9) =     18.35078  eV     1   --> A_1  D_1  S_1  
     e( 10 - 10) =     19.84721  eV     1   --> A_2  D_2  S_2  

 **************************************************************************

 **************************************************************************

                    xk=(   0.00000,   0.00000,   0.85000  )

     Band symmetry, C_2v (mm2)  point group:

     e(  1 -  1) =     -7.11271  eV     1   --> A_1  D_1  S_1  
     e(  2 -  2) =     -0.62372  eV     1   --> A_1  D_1  S_1  
     e(  3 -  4) =      2.34138  eV     2   --> B_1  D_3  S_3  
     e(  3 -  4) =      2.34138  eV     2   --> B_2  D_4  S_4  
     e(  5 -  5) =      8.11475  eV     1   --> A_1  D_1  S_1  
     e(  6 -  6) =      9.29034  eV     1   --> A_1  D_1  S_1  
     e(  7 -  8) =     17.97828  eV     2   --> B_1  D_3  S_3  
     e(  7 -  8) =     17.97828  eV     2   --> B_2  D_4  S_4  
     e(  9 -  9) =     18.16806  eV     1   --> A_1  D_1  S_1  
     e( 10 - 10) =     19.75970  eV     1   --> A_2  D_2  S_2  

 **************************************************************************

 **************************************************************************

                    xk=(   0.00000,   0.00000,   0.82500  )

     Band symmetry, C_2v (mm2)  point group:

     e(  1 -  1) =     -7.18074  eV     1   --> A_1  D_1  S_1  
     e(  2 -  2) =     -0.51565  eV     1   --> A_1  D_1  S_1  
     e(  3 -  4) =      2.37836  eV     2   --> B_1  D_3  S_3  
     e(  3 -  4) =      2.37836  eV     2   --> B_2  D_4  S_4  
     e(  5 -  5) =      8.18114  eV     1   --> A_1  D_1  S_1  
     e(  6 -  6) =      9.34307  eV     1   --> A_1  D_1  S_1  
     e(  7 -  8) =     17.72172  eV     2   --> B_1  D_3  S_3  
     e(  7 -  8) =     17.72172  eV     2   --> B_2  D_4  S_4  
     e(  9 -  9) =     17.96420  eV     1   --> A_1  D_1  S_1  
     e( 10 - 10) =     19.66183  eV     1   --> A_2  D_2  S_2  

 **************************************************************************

 **************************************************************************

                    xk=(   0.00000,   0.00000,   0.80000  )

     Band symmetry, C_2v (mm2)  point group:

     e(  1 -  1) =     -7.25563  eV     1   --> A_1  D_1  S_1  
     e(  2 -  2) =     -0.39486  eV     1   --> A_1  D_1  S_1  
     e(  3 -  4) =      2.42076  eV     2   --> B_1  D_3  S_3  
     e(  3 -  4) =      2.42076  eV     2   --> B_2  D_4  S_4  
     e(  5 -  5) =      8.25668  eV     1   --> A_1  D_1  S_1  
     e(  6 -  6) =      9.40424  eV     1   --> A_1  D_1  S_1  
     e(  7 -  8) =     17.46468  eV     2   --> B_1  D_3  S_3  
     e(  7 -  8) =     17.46468  eV     2   --> B_2  D_4  S_4  
     e(  9 -  9) =     17.74272  eV     1   --> A_1  D_1  S_1  
     e( 10 - 10) =     19.55549  eV     1   --> A_2  D_2  S_2  

 **************************************************************************

 **************************************************************************

                    xk=(   0.00000,   0.00000,   0.77500  )

     Band symmetry, C_2v (mm2)  point group:

     e(  1 -  1) =     -7.33623  eV     1   --> A_1  D_1  S_1  
     e(  2 -  2) =     -0.26255  eV     1   --> A_1  D_1  S_1  
     e(  3 -  4) =      2.46846  eV     2   --> B_1  D_3  S_3  
     e(  3 -  4) =      2.46846  eV     2   --> B_2  D_4  S_4  
     e(  5 -  5) =      8.34088  eV     1   --> A_1  D_1  S_1  
     e(  6 -  6) =      9.47391  eV     1   --> A_1  D_1  S_1  
     e(  7 -  8) =     17.20852  eV     2   --> B_1  D_3  S_3  
     e(  7 -  8) =     17.20852  eV     2   --> B_2  D_4  S_4  
     e(  9 -  9) =     17.50720  eV     1   --> A_1  D_1  S_1  
     e( 10 - 10) =     19.44251  eV     1   --> A_2  D_2  S_2  

 **************************************************************************

 **************************************************************************

                    xk=(   0.00000,   0.00000,   0.75000  )

     Band symmetry, C_2v (mm2)  point group:

     e(  1 -  1) =     -7.42144  eV     1   --> A_1  D_1  S_1  
     e(  2 -  2) =     -0.11999  eV     1   --> A_1  D_1  S_1  
     e(  3 -  4) =      2.52137  eV     2   --> B_1  D_3  S_3  
     e(  3 -  4) =      2.52137  eV     2   --> B_2  D_4  S_4  
     e(  5 -  5) =      8.43317  eV     1   --> A_1  D_1  S_1  
     e(  6 -  6) =      9.55224  eV     1   --> A_1  D_1  S_1  
     e(  7 -  8) =     16.95393  eV     2   --> B_1  D_3  S_3  
     e(  7 -  8) =     16.95393  eV     2   --> B_2  D_4  S_4  
     e(  9 -  9) =     17.26082  eV     1   --> A_1  D_1  S_1  
     e( 10 - 10) =     19.32454  eV     1   --> A_2  D_2  S_2  

 **************************************************************************

 **************************************************************************

                    xk=(   0.00000,   0.00000,   0.72500  )

     Band symmetry, C_2v (mm2)  point group:

     e(  1 -  1) =     -7.51022  eV     1   --> A_1  D_1  S_1  
     e(  2 -  2) =      0.03186  eV     1   --> A_1  D_1  S_1  
     e(  3 -  4) =      2.57937  eV     2   --> B_1  D_3  S_3  
     e(  3 -  4) =      2.57937  eV     2   --> B_2  D_4  S_4  
     e(  5 -  5) =      8.53300  eV     1   --> A_1  D_1  S_1  
     e(  6 -  6) =      9.63926  eV     1   --> A_1  D_1  S_1  
     e(  7 -  8) =     16.70150  eV     2   --> B_1  D_3  S_3  
     e(  7 -  8) =     16.70150  eV     2   --> B_2  D_4  S_4  
     e(  9 -  9) =     17.00644  eV     1   --> A_1  D_1  S_1  
     e( 10 - 10) =     19.20309  eV     1   --> A_2  D_2  S_2  

 **************************************************************************

 **************************************************************************

                    xk=(   0.00000,   0.00000,   0.70000  )

     Band symmetry, C_2v (mm2)  point group:

     e(  1 -  1) =     -7.60161  eV     1   --> A_1  D_1  S_1  
     e(  2 -  2) =      0.19182  eV     1   --> A_1  D_1  S_1  
     e(  3 -  4) =      2.64219  eV     2   --> B_1  D_3  S_3  
     e(  3 -  4) =      2.64219  eV     2   --> B_2  D_4  S_4  
     e(  5 -  5) =      8.63963  eV     1   --> A_1  D_1  S_1  
     e(  6 -  6) =      9.73486  eV     1   --> A_1  D_1  S_1  
     e(  7 -  8) =     16.45152  eV     2   --> B_1  D_3  S_3  
     e(  7 -  8) =     16.45152  eV     2   --> B_2  D_4  S_4  
     e(  9 -  9) =     16.74671  eV     1   --> A_1  D_1  S_1  
     e( 10 - 10) =     19.07891  eV     1   --> A_2  D_2  S_2  

 **************************************************************************

 **************************************************************************

                    xk=(   0.00000,   0.00000,   0.67500  )

     Band symmetry, C_2v (mm2)  point group:

     e(  1 -  1) =     -7.69470  eV     1   --> A_1  D_1  S_1  
     e(  2 -  2) =      0.35895  eV     1   --> A_1  D_1  S_1  
     e(  3 -  4) =      2.70980  eV     2   --> B_1  D_3  S_3  
     e(  3 -  4) =      2.70980  eV     2   --> B_2  D_4  S_4  
     e(  5 -  5) =      8.75238  eV     1   --> A_1  D_1  S_1  
     e(  6 -  6) =      9.83881  eV     1   --> A_1  D_1  S_1  
     e(  7 -  8) =     16.20432  eV     2   --> B_1  D_3  S_3  
     e(  7 -  8) =     16.20432  eV     2   --> B_2  D_4  S_4  
     e(  9 -  9) =     16.48434  eV     1   --> A_1  D_1  S_1  
     e( 10 - 10) =     18.95426  eV     1   --> A_2  D_2  S_2  

 **************************************************************************

 **************************************************************************

                    xk=(   0.00000,   0.00000,   0.65000  )

     Band symmetry, C_2v (mm2)  point group:

     e(  1 -  1) =     -7.78871  eV     1   --> A_1  D_1  S_1  
     e(  2 -  2) =      0.53227  eV     1   --> A_1  D_1  S_1  
     e(  3 -  4) =      2.78193  eV     2   --> B_1  D_3  S_3  
     e(  3 -  4) =      2.78193  eV     2   --> B_2  D_4  S_4  
     e(  5 -  5) =      8.87045  eV     1   --> A_1  D_1  S_1  
     e(  6 -  6) =      9.95062  eV     1   --> A_1  D_1  S_1  
     e(  7 -  8) =     15.96006  eV     2   --> B_1  D_3  S_3  
     e(  7 -  8) =     15.96006  eV     2   --> B_2  D_4  S_4  
     e(  9 -  9) =     16.22149  eV     1   --> A_1  D_1  S_1  
     e( 10 - 10) =     18.82956  eV     1   --> A_2  D_2  S_2  

 **************************************************************************

 **************************************************************************

                    xk=(   0.00000,   0.00000,   0.62500  )

     Band symmetry, C_2v (mm2)  point group:

     e(  1 -  1) =     -7.88291  eV     1   --> A_1  D_1  S_1  
     e(  2 -  2) =      0.71099  eV     1   --> A_1  D_1  S_1  
     e(  3 -  4) =      2.85835  eV     2   --> B_1  D_3  S_3  
     e(  3 -  4) =      2.85835  eV     2   --> B_2  D_4  S_4  
     e(  5 -  5) =      8.99312  eV     1   --> A_1  D_1  S_1  
     e(  6 -  6) =     10.06944  eV     1   --> A_1  D_1  S_1  
     e(  7 -  8) =     15.71895  eV     2   --> B_1  D_3  S_3  
     e(  7 -  8) =     15.71895  eV     2   --> B_2  D_4  S_4  
     e(  9 -  9) =     15.96092  eV     1   --> A_1  D_1  S_1  
     e( 10 - 10) =     18.70569  eV     1   --> A_2  D_2  S_2  

 **************************************************************************

 **************************************************************************

                    xk=(   0.00000,   0.00000,   0.60000  )

     Band symmetry, C_2v (mm2)  point group:

     e(  1 -  1) =     -7.97666  eV     1   --> A_1  D_1  S_1  
     e(  2 -  2) =      0.89434  eV     1   --> A_1  D_1  S_1  
     e(  3 -  4) =      2.93883  eV     2   --> B_1  D_3  S_3  
     e(  3 -  4) =      2.93883  eV     2   --> B_2  D_4  S_4  
     e(  5 -  5) =      9.11970  eV     1   --> A_1  D_1  S_1  
     e(  6 -  6) =     10.19395  eV     1   --> A_1  D_1  S_1  
     e(  7 -  8) =     15.48118  eV     2   --> B_1  D_3  S_3  
     e(  7 -  8) =     15.48118  eV     2   --> B_2  D_4  S_4  
     e(  9 -  9) =     15.70545  eV     1   --> A_1  D_1  S_1  
     e( 10 - 10) =     18.58337  eV     1   --> A_2  D_2  S_2  

 **************************************************************************

 **************************************************************************

                    xk=(   0.00000,   0.00000,   0.57500  )

     Band symmetry, C_2v (mm2)  point group:

     e(  1 -  1) =     -8.06936  eV     1   --> A_1  D_1  S_1  
     e(  2 -  2) =      1.08166  eV     1   --> A_1  D_1  S_1  
     e(  3 -  4) =      3.02319  eV     2   --> B_1  D_3  S_3  
     e(  3 -  4) =      3.02319  eV     2   --> B_2  D_4  S_4  
     e(  5 -  5) =      9.24966  eV     1   --> A_1  D_1  S_1  
     e(  6 -  6) =     10.32231  eV     1   --> A_1  D_1  S_1  
     e(  7 -  8) =     15.24711  eV     2   --> B_1  D_3  S_3  
     e(  7 -  8) =     15.24711  eV     2   --> B_2  D_4  S_4  
     e(  9 -  9) =     15.45829  eV     1   --> A_1  D_1  S_1  
     e( 10 - 10) =     18.46368  eV     1   --> A_2  D_2  S_2  

 **************************************************************************

 **************************************************************************

                    xk=(   0.00000,   0.00000,   0.55000  )

     Band symmetry, C_2v (mm2)  point group:

     e(  1 -  1) =     -8.16054  eV     1   --> A_1  D_1  S_1  
     e(  2 -  2) =      1.27222  eV     1   --> A_1  D_1  S_1  
     e(  3 -  4) =      3.11091  eV     2   --> B_1  D_3  S_3  
     e(  3 -  4) =      3.11091  eV     2   --> B_2  D_4  S_4  
     e(  5 -  5) =      9.38218  eV     1   --> A_1  D_1  S_1  
     e(  6 -  6) =     10.45136  eV     1   --> A_1  D_1  S_1  
     e(  7 -  8) =     15.01661  eV     2   --> B_1  D_3  S_3  
     e(  7 -  8) =     15.01661  eV     2   --> B_2  D_4  S_4  
     e(  9 -  9) =     15.22320  eV     1   --> A_1  D_1  S_1  
     e( 10 - 10) =     18.34628  eV     1   --> A_2  D_2  S_2  

 **************************************************************************

 **************************************************************************

                    xk=(   0.00000,   0.00000,   0.52500  )

     Band symmetry, C_2v (mm2)  point group:

     e(  1 -  1) =     -8.24972  eV     1   --> A_1  D_1  S_1  
     e(  2 -  2) =      1.46564  eV     1   --> A_1  D_1  S_1  
     e(  3 -  4) =      3.20179  eV     2   --> B_1  D_3  S_3  
     e(  3 -  4) =      3.20179  eV     2   --> B_2  D_4  S_4  
     e(  5 -  5) =      9.51692  eV     1   --> A_1  D_1  S_1  
     e(  6 -  6) =     10.57751  eV     1   --> A_1  D_1  S_1  
     e(  7 -  8) =     14.79029  eV     2   --> B_1  D_3  S_3  
     e(  7 -  8) =     14.79029  eV     2   --> B_2  D_4  S_4  
     e(  9 -  9) =     15.00490  eV     1   --> A_1  D_1  S_1  
     e( 10 - 10) =     18.23215  eV     1   --> A_2  D_2  S_2  

 **************************************************************************

 **************************************************************************

                    xk=(   0.00000,   0.00000,   0.50000  )

     Band symmetry, C_2v (mm2)  point group:

     e(  1 -  1) =     -8.33650  eV     1   --> A_1  D_1  S_1  
     e(  2 -  2) =      1.66135  eV     1   --> A_1  D_1  S_1  
     e(  3 -  4) =      3.29542  eV     2   --> B_1  D_3  S_3  
     e(  3 -  4) =      3.29542  eV     2   --> B_2  D_4  S_4  
     e(  5 -  5) =      9.65338  eV     1   --> A_1  D_1  S_1  
     e(  6 -  6) =     10.69554  eV     1   --> A_1  D_1  S_1  
     e(  7 -  8) =     14.56810  eV     2   --> B_1  D_3  S_3  
     e(  7 -  8) =     14.56810  eV     2   --> B_2  D_4  S_4  
     e(  9 -  9) =     14.80935  eV     1   --> A_1  D_1  S_1  
     e( 10 - 10) =     18.12157  eV     1   --> A_2  D_2  S_2  

 **************************************************************************

 **************************************************************************

                    xk=(   0.00000,   0.00000,   0.47500  )

     Band symmetry, C_2v (mm2)  point group:

     e(  1 -  1) =     -8.42058  eV     1   --> A_1  D_1  S_1  
     e(  2 -  2) =      1.85869  eV     1   --> A_1  D_1  S_1  
     e(  3 -  4) =      3.39142  eV     2   --> B_1  D_3  S_3  
     e(  3 -  4) =      3.39142  eV     2   --> B_2  D_4  S_4  
     e(  5 -  5) =      9.79103  eV     1   --> A_1  D_1  S_1  
     e(  6 -  6) =     10.79909  eV     1   --> A_1  D_1  S_1  
     e(  7 -  8) =     14.35031  eV     2   --> B_1  D_3  S_3  
     e(  7 -  8) =     14.35031  eV     2   --> B_2  D_4  S_4  
     e(  9 -  9) =     14.64246  eV     1   --> A_1  D_1  S_1  
     e( 10 - 10) =     18.01492  eV     1   --> A_2  D_2  S_2  

 **************************************************************************

 **************************************************************************

                    xk=(   0.00000,   0.00000,   0.45000  )

     Band symmetry, C_2v (mm2)  point group:

     e(  1 -  1) =     -8.50163  eV     1   --> A_1  D_1  S_1  
     e(  2 -  2) =      2.05719  eV     1   --> A_1  D_1  S_1  
     e(  3 -  4) =      3.48923  eV     2   --> B_1  D_3  S_3  
     e(  3 -  4) =      3.48923  eV     2   --> B_2  D_4  S_4  
     e(  5 -  5) =      9.92931  eV     1   --> A_1  D_1  S_1  
     e(  6 -  6) =     10.88074  eV     1   --> A_1  D_1  S_1  
     e(  7 -  8) =     14.13732  eV     2   --> B_1  D_3  S_3  
     e(  7 -  8) =     14.13732  eV     2   --> B_2  D_4  S_4  
     e(  9 -  9) =     14.51240  eV     1   --> A_1  D_1  S_1  
     e( 10 - 10) =     17.91237  eV     1   --> A_2  D_2  S_2  

 **************************************************************************

 **************************************************************************

                    xk=(   0.00000,   0.00000,   0.42500  )

     Band symmetry, C_2v (mm2)  point group:

     e(  1 -  1) =     -8.57938  eV     1   --> A_1  D_1  S_1  
     e(  2 -  2) =      2.25650  eV     1   --> A_1  D_1  S_1  
     e(  3 -  4) =      3.58850  eV     2   --> B_1  D_3  S_3  
     e(  3 -  4) =      3.58850  eV     2   --> B_2  D_4  S_4  
     e(  5 -  5) =     10.06748  eV     1   --> A_1  D_1  S_1  
     e(  6 -  6) =     10.93312  eV     1   --> A_1  D_1  S_1  
     e(  7 -  8) =     13.92962  eV     2   --> B_1  D_3  S_3  
     e(  7 -  8) =     13.92962  eV     2   --> B_2  D_4  S_4  
     e(  9 -  9) =     14.42695  eV     1   --> A_1  D_1  S_1  
     e( 10 - 10) =     17.81427  eV     1   --> A_2  D_2  S_2  

 **************************************************************************

 **************************************************************************

                    xk=(   0.00000,   0.00000,   0.40000  )

     Band symmetry, C_2v (mm2)  point group:

     e(  1 -  1) =     -8.65360  eV     1   --> A_1  D_1  S_1  
     e(  2 -  2) =      2.45609  eV     1   --> A_1  D_1  S_1  
     e(  3 -  4) =      3.68874  eV     2   --> B_1  D_3  S_3  
     e(  3 -  4) =      3.68874  eV     2   --> B_2  D_4  S_4  
     e(  5 -  5) =     10.20430  eV     1   --> A_1  D_1  S_1  
     e(  6 -  6) =     10.95060  eV     1   --> A_1  D_1  S_1  
     e(  7 -  8) =     13.72763  eV     2   --> B_1  D_3  S_3  
     e(  7 -  8) =     13.72763  eV     2   --> B_2  D_4  S_4  
     e(  9 -  9) =     14.39251  eV     1   --> A_1  D_1  S_1  
     e( 10 - 10) =     17.72112  eV     1   --> A_2  D_2  S_2  

 **************************************************************************

 **************************************************************************

                    xk=(   0.00000,   0.00000,   0.37500  )

     Band symmetry, C_2v (mm2)  point group:

     e(  1 -  1) =     -8.72407  eV     1   --> A_1  D_1  S_1  
     e(  2 -  2) =      2.65541  eV     1   --> A_1  D_1  S_1  
     e(  3 -  4) =      3.78929  eV     2   --> B_1  D_3  S_3  
     e(  3 -  4) =      3.78929  eV     2   --> B_2  D_4  S_4  
     e(  5 -  5) =     10.33698  eV     1   --> A_1  D_1  S_1  
     e(  6 -  6) =     10.93204  eV     1   --> A_1  D_1  S_1  
     e(  7 -  8) =     13.53182  eV     2   --> B_1  D_3  S_3  
     e(  7 -  8) =     13.53182  eV     2   --> B_2  D_4  S_4  
     e(  9 -  9) =     14.41216  eV     1   --> A_1  D_1  S_1  
     e( 10 - 10) =     17.63289  eV     1   --> A_2  D_2  S_2  

 **************************************************************************

 **************************************************************************

                    xk=(   0.00000,   0.00000,   0.35000  )

     Band symmetry, C_2v (mm2)  point group:

     e(  1 -  1) =     -8.79062  eV     1   --> A_1  D_1  S_1  
     e(  2 -  2) =      2.85388  eV     1   --> A_1  D_1  S_1  
     e(  3 -  4) =      3.88956  eV     2   --> B_1  D_3  S_3  
     e(  3 -  4) =      3.88956  eV     2   --> B_2  D_4  S_4  
     e(  5 -  5) =     10.45786  eV     1   --> A_1  D_1  S_1  
     e(  6 -  6) =     10.88542  eV     1   --> A_1  D_1  S_1  
     e(  7 -  8) =     13.34292  eV     2   --> B_1  D_3  S_3  
     e(  7 -  8) =     13.34292  eV     2   --> B_2  D_4  S_4  
     e(  9 -  9) =     14.48471  eV     1   --> A_1  D_1  S_1  
     e( 10 - 10) =     17.55000  eV     1   --> A_2  D_2  S_2  

 **************************************************************************

 **************************************************************************

                    xk=(   0.00000,   0.00000,   0.32500  )

     Band symmetry, C_2v (mm2)  point group:

     e(  1 -  1) =     -8.85312  eV     1   --> A_1  D_1  S_1  
     e(  2 -  2) =      3.05074  eV     1   --> A_1  D_1  S_1  
     e(  3 -  4) =      3.98868  eV     2   --> B_1  D_3  S_3  
     e(  3 -  4) =      3.98868  eV     2   --> B_2  D_4  S_4  
     e(  5 -  5) =     10.53833  eV     1   --> A_1  D_1  S_1  
     e(  6 -  6) =     10.84323  eV     1   --> A_1  D_1  S_1  
     e(  7 -  8) =     13.16118  eV     2   --> B_1  D_3  S_3  
     e(  7 -  8) =     13.16118  eV     2   --> B_2  D_4  S_4  
     e(  9 -  9) =     14.60506  eV     1   --> A_1  D_1  S_1  
     e( 10 - 10) =     17.47191  eV     1   --> A_2  D_2  S_2  

 **************************************************************************

 **************************************************************************

                    xk=(   0.00000,   0.00000,   0.30000  )

     Band symmetry, C_2v (mm2)  point group:

     e(  1 -  1) =     -8.91141  eV     1   --> A_1  D_1  S_1  
     e(  2 -  2) =      3.24533  eV     1   --> A_1  D_1  S_1  
     e(  3 -  4) =      4.08607  eV     2   --> B_1  D_3  S_3  
     e(  3 -  4) =      4.08607  eV     2   --> B_2  D_4  S_4  
     e(  5 -  5) =     10.51407  eV     1   --> A_1  D_1  S_1  
     e(  6 -  6) =     10.87597  eV     1   --> A_1  D_1  S_1  
     e(  7 -  8) =     12.98759  eV     2   --> B_1  D_3  S_3  
     e(  7 -  8) =     12.98759  eV     2   --> B_2  D_4  S_4  
     e(  9 -  9) =     14.76557  eV     1   --> A_1  D_1  S_1  
     e( 10 - 10) =     17.39936  eV     1   --> A_2  D_2  S_2  

 **************************************************************************

 **************************************************************************

                    xk=(   0.00000,   0.00000,   0.27500  )

     Band symmetry, C_2v (mm2)  point group:

     e(  1 -  1) =     -8.96539  eV     1   --> A_1  D_1  S_1  
     e(  2 -  2) =      3.43668  eV     1   --> A_1  D_1  S_1  
     e(  3 -  4) =      4.18084  eV     2   --> B_1  D_3  S_3  
     e(  3 -  4) =      4.18084  eV     2   --> B_2  D_4  S_4  
     e(  5 -  5) =     10.40007  eV     1   --> A_1  D_1  S_1  
     e(  6 -  6) =     10.97531  eV     1   --> A_1  D_1  S_1  
     e(  7 -  8) =     12.82285  eV     2   --> B_1  D_3  S_3  
     e(  7 -  8) =     12.82285  eV     2   --> B_2  D_4  S_4  
     e(  9 -  9) =     14.95795  eV     1   --> A_1  D_1  S_1  
     e( 10 - 10) =     17.33228  eV     1   --> A_2  D_2  S_2  

 **************************************************************************

 **************************************************************************

                    xk=(   0.00000,   0.00000,   0.25000  )

     Band symmetry, C_2v (mm2)  point group:

     e(  1 -  1) =     -9.01495  eV     1   --> A_1  D_1  S_1  
     e(  2 -  2) =      3.62347  eV     1   --> A_1  D_1  S_1  
     e(  3 -  4) =      4.27205  eV     2   --> B_1  D_3  S_3  
     e(  3 -  4) =      4.27205  eV     2   --> B_2  D_4  S_4  
     e(  5 -  5) =     10.25050  eV     1   --> A_1  D_1  S_1  
     e(  6 -  6) =     11.09319  eV     1   --> A_1  D_1  S_1  
     e(  7 -  8) =     12.66768  eV     2   --> B_1  D_3  S_3  
     e(  7 -  8) =     12.66768  eV     2   --> B_2  D_4  S_4  
     e(  9 -  9) =     15.17397  eV     1   --> A_1  D_1  S_1  
     e( 10 - 10) =     17.27070  eV     1   --> A_2  D_2  S_2  

 **************************************************************************

 **************************************************************************

                    xk=(   0.00000,   0.00000,   0.22500  )

     Band symmetry, C_2v (mm2)  point group:

     e(  1 -  1) =     -9.06001  eV     1   --> A_1  D_1  S_1  
     e(  2 -  2) =      3.80462  eV     1   --> A_1  D_1  S_1  
     e(  3 -  4) =      4.35889  eV     2   --> B_1  D_3  S_3  
     e(  3 -  4) =      4.35889  eV     2   --> B_2  D_4  S_4  
     e(  5 -  5) =     10.08695  eV     1   --> A_1  D_1  S_1  
     e(  6 -  6) =     11.21329  eV     1   --> A_1  D_1  S_1  
     e(  7 -  8) =     12.52326  eV     2   --> B_1  D_3  S_3  
     e(  7 -  8) =     12.52326  eV     2   --> B_2  D_4  S_4  
     e(  9 -  9) =     15.40623  eV     1   --> A_1  D_1  S_1  
     e( 10 - 10) =     17.21487  eV     1   --> A_2  D_2  S_2  

 **************************************************************************

 **************************************************************************

                    xk=(   0.00000,   0.00000,   0.20000  )

     Band symmetry, C_2v (mm2)  point group:

     e(  1 -  1) =     -9.10049  eV     1   --> A_1  D_1  S_1  
     e(  2 -  2) =      3.97830  eV     1   --> A_1  D_1  S_1  
     e(  3 -  4) =      4.44036  eV     2   --> B_1  D_3  S_3  
     e(  3 -  4) =      4.44036  eV     2   --> B_2  D_4  S_4  
     e(  5 -  5) =      9.91928  eV     1   --> A_1  D_1  S_1  
     e(  6 -  6) =     11.32990  eV     1   --> A_1  D_1  S_1  
     e(  7 -  8) =     12.39038  eV     2   --> B_1  D_3  S_3  
     e(  7 -  8) =     12.39038  eV     2   --> B_2  D_4  S_4  
     e(  9 -  9) =     15.64737  eV     1   --> A_1  D_1  S_1  
     e( 10 - 10) =     17.16473  eV     1   --> A_2  D_2  S_2  

 **************************************************************************

 **************************************************************************

                    xk=(   0.00000,   0.00000,   0.17500  )

     Band symmetry, C_2v (mm2)  point group:

     e(  1 -  1) =     -9.13634  eV     1   --> A_1  D_1  S_1  
     e(  2 -  2) =      4.14262  eV     1   --> A_1  D_1  S_1  
     e(  3 -  4) =      4.51543  eV     2   --> B_1  D_3  S_3  
     e(  3 -  4) =      4.51543  eV     2   --> B_2  D_4  S_4  
     e(  5 -  5) =      9.75411  eV     1   --> A_1  D_1  S_1  
     e(  6 -  6) =     11.43993  eV     1   --> A_1  D_1  S_1  
     e(  7 -  8) =     12.27001  eV     2   --> B_1  D_3  S_3  
     e(  7 -  8) =     12.27001  eV     2   --> B_2  D_4  S_4  
     e(  9 -  9) =     15.89067  eV     1   --> A_1  D_1  S_1  
     e( 10 - 10) =     17.12038  eV     1   --> A_2  D_2  S_2  

 **************************************************************************

 **************************************************************************

                    xk=(   0.00000,   0.00000,   0.15000  )

     Band symmetry, C_2v (mm2)  point group:

     e(  1 -  1) =     -9.16751  eV     1   --> A_1  D_1  S_1  
     e(  2 -  2) =      4.29505  eV     1   --> A_1  D_1  S_1  
     e(  3 -  4) =      4.58309  eV     2   --> B_1  D_3  S_3  
     e(  3 -  4) =      4.58309  eV     2   --> B_2  D_4  S_4  
     e(  5 -  5) =      9.59681  eV     1   --> A_1  D_1  S_1  
     e(  6 -  6) =     11.54098  eV     1   --> A_1  D_1  S_1  
     e(  7 -  8) =     12.16300  eV     2   --> B_1  D_3  S_3  
     e(  7 -  8) =     12.16300  eV     2   --> B_2  D_4  S_4  
     e(  9 -  9) =     16.12884  eV     1   --> A_1  D_1  S_1  
     e( 10 - 10) =     17.08182  eV     1   --> A_2  D_2  S_2  

 **************************************************************************

 **************************************************************************

                    xk=(   0.00000,   0.00000,   0.12500  )

     Band symmetry, C_2v (mm2)  point group:

     e(  1 -  1) =     -9.19394  eV     1   --> A_1  D_1  S_1  
     e(  2 -  2) =      4.43278  eV     1   --> A_1  D_1  S_1  
     e(  3 -  4) =      4.64238  eV     2   --> B_1  D_3  S_3  
     e(  3 -  4) =      4.64238  eV     2   --> B_2  D_4  S_4  
     e(  5 -  5) =      9.45237  eV     1   --> A_1  D_1  S_1  
     e(  6 -  6) =     11.63096  eV     1   --> A_1  D_1  S_1  
     e(  7 -  8) =     12.07048  eV     2   --> B_1  D_3  S_3  
     e(  7 -  8) =     12.07048  eV     2   --> B_2  D_4  S_4  
     e(  9 -  9) =     16.35422  eV     1   --> A_1  D_1  S_1  
     e( 10 - 10) =     17.04912  eV     1   --> A_2  D_2  S_2  

 **************************************************************************

 **************************************************************************

                    xk=(   0.00000,   0.00000,   0.10000  )

     Band symmetry, C_2v (mm2)  point group:

     e(  1 -  1) =     -9.21562  eV     1   --> A_1  D_1  S_1  
     e(  2 -  2) =      4.55247  eV     1   --> A_1  D_1  S_1  
     e(  3 -  4) =      4.69236  eV     2   --> B_1  D_3  S_3  
     e(  3 -  4) =      4.69236  eV     2   --> B_2  D_4  S_4  
     e(  5 -  5) =      9.32548  eV     1   --> A_1  D_1  S_1  
     e(  6 -  6) =     11.70787  eV     1   --> A_1  D_1  S_1  
     e(  7 -  8) =     11.99329  eV     2   --> B_1  D_3  S_3  
     e(  7 -  8) =     11.99329  eV     2   --> B_2  D_4  S_4  
     e(  9 -  9) =     16.55784  eV     1   --> A_1  D_1  S_1  
     e( 10 - 10) =     17.02233  eV     1   --> A_2  D_2  S_2  

 **************************************************************************

 **************************************************************************

                    xk=(   0.00000,   0.00000,   0.07500  )

     Band symmetry, C_2v (mm2)  point group:

     e(  1 -  1) =     -9.23251  eV     1   --> A_1  D_1  S_1  
     e(  2 -  2) =      4.65067  eV     1   --> A_1  D_1  S_1  
     e(  3 -  4) =      4.73219  eV     2   --> B_1  D_3  S_3  
     e(  3 -  4) =      4.73219  eV     2   --> B_2  D_4  S_4  
     e(  5 -  5) =      9.22072  eV     1   --> A_1  D_1  S_1  
     e(  6 -  6) =     11.76989  eV     1   --> A_1  D_1  S_1  
     e(  7 -  8) =     11.93230  eV     2   --> B_1  D_3  S_3  
     e(  7 -  8) =     11.93230  eV     2   --> B_2  D_4  S_4  
     e(  9 -  9) =     16.73053  eV     1   --> A_1  D_1  S_1  
     e( 10 - 10) =     17.00146  eV     1   --> A_2  D_2  S_2  

 **************************************************************************

 **************************************************************************

                    xk=(   0.00000,   0.00000,   0.05000  )

     Band symmetry, C_2v (mm2)  point group:

     e(  1 -  1) =     -9.24458  eV     1   --> A_1  D_1  S_1  
     e(  2 -  2) =      4.72395  eV     1   --> A_1  D_1  S_1  
     e(  3 -  4) =      4.76118  eV     2   --> B_1  D_3  S_3  
     e(  3 -  4) =      4.76118  eV     2   --> B_2  D_4  S_4  
     e(  5 -  5) =      9.14228  eV     1   --> A_1  D_1  S_1  
     e(  6 -  6) =     11.81545  eV     1   --> A_1  D_1  S_1  
     e(  7 -  8) =     11.88821  eV     2   --> B_1  D_3  S_3  
     e(  7 -  8) =     11.88821  eV     2   --> B_2  D_4  S_4  
     e(  9 -  9) =     16.86278  eV     1   --> A_1  D_1  S_1  
     e( 10 - 10) =     16.98654  eV     1   --> A_2  D_2  S_2  

 **************************************************************************

 **************************************************************************

                    xk=(   0.00000,   0.00000,   0.02500  )

     Band symmetry, C_2v (mm2)  point group:

     e(  1 -  1) =     -9.25183  eV     1   --> A_1  D_1  S_1  
     e(  2 -  2) =      4.76930  eV     1   --> A_1  D_1  S_1  
     e(  3 -  4) =      4.77880  eV     2   --> B_1  D_3  S_3  
     e(  3 -  4) =      4.77880  eV     2   --> B_2  D_4  S_4  
     e(  5 -  5) =      9.09364  eV     1   --> A_1  D_1  S_1  
     e(  6 -  6) =     11.84332  eV     1   --> A_1  D_1  S_1  
     e(  7 -  8) =     11.86153  eV     2   --> B_1  D_3  S_3  
     e(  7 -  8) =     11.86153  eV     2   --> B_2  D_4  S_4  
     e(  9 -  9) =     16.94613  eV     1   --> A_1  D_1  S_1  
     e( 10 - 10) =     16.97758  eV     1   --> A_2  D_2  S_2  

 **************************************************************************

 **************************************************************************

                    xk=(   0.00000,   0.00000,   0.00000  )

     point group T_d (-43m) 
     there are  5 classes
     the character table:

       E     8C3   3C2   6S4   6s_d 
A_1    1.00  1.00  1.00  1.00  1.00
A_2    1.00  1.00  1.00 -1.00 -1.00
E      2.00 -1.00  2.00  0.00  0.00
T_1    3.00  0.00 -1.00  1.00 -1.00
T_2    3.00  0.00 -1.00 -1.00  1.00

     the symmetry operations in each class and the name of the first element:

     E        1
                                                                 
     8C3      5    7    8    6   12    9   10   11
                                                                 
     3C2      2    3    4
                                                                 
     6S4     15   16   20   19   23   24
                                                                 
     6s_d    13   14   17   18   21   22
                                                                 

     Band symmetry, T_d (-43m)  point group:

     e(  1 -  1) =     -9.25423  eV     1   --> A_1  G_1  P_1  
     e(  2 -  4) =      4.78484  eV     3   --> T_2  G_15 P_4  
     e(  5 -  5) =      9.07718  eV     1   --> A_1  G_1  P_1  
     e(  6 -  8) =     11.85284  eV     3   --> T_2  G_15 P_4  
     e(  9 - 10) =     16.97476  eV     2   --> E    G_12 P_3  

 **************************************************************************

 **************************************************************************

                    xk=(  -0.01250,   0.01250,   0.01250  )

     point group C_3v (3m)  
     there are  3 classes
     the character table:

       E     2C3   3s_v 
A_1    1.00  1.00  1.00
A_2    1.00  1.00 -1.00
E      2.00 -1.00  0.00

     the symmetry operations in each class and the name of the first element:

     E        1
                                                                 
     2C3      2    3
                                                                 
     3s_v     4    5    6
                                                                 

     Band symmetry, C_3v (3m)   point group:

     e(  1 -  1) =     -9.25243  eV     1   --> A_1  L_1       
     e(  2 -  2) =      4.76801  eV     1   --> A_1  L_1       
     e(  3 -  4) =      4.78296  eV     2   --> E    L_3       
     e(  5 -  5) =      9.08951  eV     1   --> A_1  L_1       
     e(  6 -  6) =     11.85155  eV     1   --> A_1  L_1       
     e(  7 -  8) =     11.85655  eV     2   --> E    L_3       
     e(  9 - 10) =     16.96508  eV     2   --> E    L_3       

 **************************************************************************

 **************************************************************************

                    xk=(  -0.02500,   0.02500,   0.02500  )

     Band symmetry, C_3v (3m)   point group:

     e(  1 -  1) =     -9.24699  eV     1   --> A_1  L_1       
     e(  2 -  2) =      4.71866  eV     1   --> A_1  L_1       
     e(  3 -  4) =      4.77737  eV     2   --> E    L_3       
     e(  5 -  5) =      9.12568  eV     1   --> A_1  L_1       
     e(  6 -  6) =     11.84839  eV     1   --> A_1  L_1       
     e(  7 -  8) =     11.86764  eV     2   --> E    L_3       
     e(  9 - 10) =     16.93694  eV     2   --> E    L_3       

 **************************************************************************

 **************************************************************************

                    xk=(  -0.03750,   0.03750,   0.03750  )

     Band symmetry, C_3v (3m)   point group:

     e(  1 -  1) =     -9.23795  eV     1   --> A_1  L_1       
     e(  2 -  2) =      4.63866  eV     1   --> A_1  L_1       
     e(  3 -  4) =      4.76814  eV     2   --> E    L_3       
     e(  5 -  5) =      9.18323  eV     1   --> A_1  L_1       
     e(  6 -  6) =     11.84403  eV     1   --> A_1  L_1       
     e(  7 -  8) =     11.88599  eV     2   --> E    L_3       
     e(  9 - 10) =     16.89192  eV     2   --> E    L_3       

 **************************************************************************

 **************************************************************************

                    xk=(  -0.05000,   0.05000,   0.05000  )

     Band symmetry, C_3v (3m)   point group:

     e(  1 -  1) =     -9.22528  eV     1   --> A_1  L_1       
     e(  2 -  2) =      4.53093  eV     1   --> A_1  L_1       
     e(  3 -  4) =      4.75549  eV     2   --> E    L_3       
     e(  5 -  5) =      9.25844  eV     1   --> A_1  L_1       
     e(  6 -  6) =     11.83993  eV     1   --> A_1  L_1       
     e(  7 -  8) =     11.91136  eV     2   --> E    L_3       
     e(  9 - 10) =     16.83281  eV     2   --> E    L_3       

 **************************************************************************

 **************************************************************************

                    xk=(  -0.06250,   0.06250,   0.06250  )

     Band symmetry, C_3v (3m)   point group:

     e(  1 -  1) =     -9.20902  eV     1   --> A_1  L_1       
     e(  2 -  2) =      4.39891  eV     1   --> A_1  L_1       
     e(  3 -  4) =      4.73950  eV     2   --> E    L_3       
     e(  5 -  5) =      9.34674  eV     1   --> A_1  L_1       
     e(  6 -  6) =     11.83795  eV     1   --> A_1  L_1       
     e(  7 -  8) =     11.94319  eV     2   --> E    L_3       
     e(  9 - 10) =     16.76261  eV     2   --> E    L_3       

 **************************************************************************

 **************************************************************************

                    xk=(  -0.07500,   0.07500,   0.07500  )

     Band symmetry, C_3v (3m)   point group:

     e(  1 -  1) =     -9.18919  eV     1   --> A_1  L_1       
     e(  2 -  2) =      4.24609  eV     1   --> A_1  L_1       
     e(  3 -  4) =      4.72035  eV     2   --> E    L_3       
     e(  5 -  5) =      9.44303  eV     1   --> A_1  L_1       
     e(  6 -  6) =     11.84055  eV     1   --> A_1  L_1       
     e(  7 -  8) =     11.98089  eV     2   --> E    L_3       
     e(  9 - 10) =     16.68460  eV     2   --> E    L_3       

 **************************************************************************

 **************************************************************************

                    xk=(  -0.08750,   0.08750,   0.08750  )

     Band symmetry, C_3v (3m)   point group:

     e(  1 -  1) =     -9.16583  eV     1   --> A_1  L_1       
     e(  2 -  2) =      4.07579  eV     1   --> A_1  L_1       
     e(  3 -  4) =      4.69825  eV     2   --> E    L_3       
     e(  5 -  5) =      9.54202  eV     1   --> A_1  L_1       
     e(  6 -  6) =     11.85045  eV     1   --> A_1  L_1       
     e(  7 -  8) =     12.02371  eV     2   --> E    L_3       
     e(  9 - 10) =     16.60199  eV     2   --> E    L_3       

 **************************************************************************

 **************************************************************************

                    xk=(  -0.10000,   0.10000,   0.10000  )

     Band symmetry, C_3v (3m)   point group:

     e(  1 -  1) =     -9.13895  eV     1   --> A_1  L_1       
     e(  2 -  2) =      3.89115  eV     1   --> A_1  L_1       
     e(  3 -  4) =      4.67344  eV     2   --> E    L_3       
     e(  5 -  5) =      9.63846  eV     1   --> A_1  L_1       
     e(  6 -  6) =     11.87126  eV     1   --> A_1  L_1       
     e(  7 -  8) =     12.07083  eV     2   --> E    L_3       
     e(  9 - 10) =     16.51790  eV     2   --> E    L_3       

 **************************************************************************

 **************************************************************************

                    xk=(  -0.11250,   0.11250,   0.11250  )

     Band symmetry, C_3v (3m)   point group:

     e(  1 -  1) =     -9.10858  eV     1   --> A_1  L_1       
     e(  2 -  2) =      3.69496  eV     1   --> A_1  L_1       
     e(  3 -  4) =      4.64621  eV     2   --> E    L_3       
     e(  5 -  5) =      9.72742  eV     1   --> A_1  L_1       
     e(  6 -  6) =     11.90630  eV     1   --> A_1  L_1       
     e(  7 -  8) =     12.12122  eV     2   --> E    L_3       
     e(  9 - 10) =     16.43538  eV     2   --> E    L_3       

 **************************************************************************

 **************************************************************************

                    xk=(  -0.12500,   0.12500,   0.12500  )

     Band symmetry, C_3v (3m)   point group:

     e(  1 -  1) =     -9.07480  eV     1   --> A_1  L_1       
     e(  2 -  2) =      3.48927  eV     1   --> A_1  L_1       
     e(  3 -  4) =      4.61680  eV     2   --> E    L_3       
     e(  5 -  5) =      9.80455  eV     1   --> A_1  L_1       
     e(  6 -  6) =     11.95828  eV     1   --> A_1  L_1       
     e(  7 -  8) =     12.17370  eV     2   --> E    L_3       
     e(  9 - 10) =     16.35685  eV     2   --> E    L_3       

 **************************************************************************

 **************************************************************************

                    xk=(  -0.13750,   0.13750,   0.13750  )

     Band symmetry, C_3v (3m)   point group:

     e(  1 -  1) =     -9.03765  eV     1   --> A_1  L_1       
     e(  2 -  2) =      3.27615  eV     1   --> A_1  L_1       
     e(  3 -  4) =      4.58551  eV     2   --> E    L_3       
     e(  5 -  5) =      9.86667  eV     1   --> A_1  L_1       
     e(  6 -  6) =     12.02973  eV     1   --> A_1  L_1       
     e(  7 -  8) =     12.22700  eV     2   --> E    L_3       
     e(  9 - 10) =     16.28499  eV     2   --> E    L_3       

 **************************************************************************

 **************************************************************************

                    xk=(  -0.15000,   0.15000,   0.15000  )

     Band symmetry, C_3v (3m)   point group:

     e(  1 -  1) =     -8.99720  eV     1   --> A_1  L_1       
     e(  2 -  2) =      3.05741  eV     1   --> A_1  L_1       
     e(  3 -  4) =      4.55261  eV     2   --> E    L_3       
     e(  5 -  5) =      9.91205  eV     1   --> A_1  L_1       
     e(  6 -  6) =     12.12151  eV     1   --> A_1  L_1       
     e(  7 -  8) =     12.27982  eV     2   --> E    L_3       
     e(  9 - 10) =     16.22207  eV     2   --> E    L_3       

 **************************************************************************

 **************************************************************************

                    xk=(  -0.16250,   0.16250,   0.16250  )

     Band symmetry, C_3v (3m)   point group:

     e(  1 -  1) =     -8.95351  eV     1   --> A_1  L_1       
     e(  2 -  2) =      2.83446  eV     1   --> A_1  L_1       
     e(  3 -  4) =      4.51847  eV     2   --> E    L_3       
     e(  5 -  5) =      9.94049  eV     1   --> A_1  L_1       
     e(  6 -  6) =     12.23312  eV     1   --> A_1  L_1       
     e(  7 -  8) =     12.33066  eV     2   --> E    L_3       
     e(  9 - 10) =     16.17051  eV     2   --> E    L_3       

 **************************************************************************

 **************************************************************************

                    xk=(  -0.17500,   0.17500,   0.17500  )

     Band symmetry, C_3v (3m)   point group:

     e(  1 -  1) =     -8.90668  eV     1   --> A_1  L_1       
     e(  2 -  2) =      2.60842  eV     1   --> A_1  L_1       
     e(  3 -  4) =      4.48327  eV     2   --> E    L_3       
     e(  5 -  5) =      9.95311  eV     1   --> A_1  L_1       
     e(  6 -  6) =     12.36296  eV     1   --> A_1  L_1       
     e(  7 -  8) =     12.37810  eV     2   --> E    L_3       
     e(  9 - 10) =     16.13202  eV     2   --> E    L_3       

 **************************************************************************

 **************************************************************************

                    xk=(  -0.18750,   0.18750,   0.18750  )

     Band symmetry, C_3v (3m)   point group:

     e(  1 -  1) =     -8.85681  eV     1   --> A_1  L_1       
     e(  2 -  2) =      2.38065  eV     1   --> A_1  L_1       
     e(  3 -  4) =      4.44742  eV     2   --> E    L_3       
     e(  5 -  5) =      9.95188  eV     1   --> A_1  L_1       
     e(  6 -  7) =     12.42074  eV     2   --> E    L_3       
     e(  8 -  8) =     12.50854  eV     1   --> A_1  L_1       
     e(  9 - 10) =     16.10881  eV     2   --> E    L_3       

 **************************************************************************

 **************************************************************************

                    xk=(  -0.20000,   0.20000,   0.20000  )

     Band symmetry, C_3v (3m)   point group:

     e(  1 -  1) =     -8.80403  eV     1   --> A_1  L_1       
     e(  2 -  2) =      2.15196  eV     1   --> A_1  L_1       
     e(  3 -  4) =      4.41099  eV     2   --> E    L_3       
     e(  5 -  5) =      9.93915  eV     1   --> A_1  L_1       
     e(  6 -  7) =     12.45719  eV     2   --> E    L_3       
     e(  8 -  8) =     12.66695  eV     1   --> A_1  L_1       
     e(  9 - 10) =     16.10201  eV     2   --> E    L_3       

 **************************************************************************

 **************************************************************************

                    xk=(  -0.21250,   0.21250,   0.21250  )

     Band symmetry, C_3v (3m)   point group:

     e(  1 -  1) =     -8.74848  eV     1   --> A_1  L_1       
     e(  2 -  2) =      1.92336  eV     1   --> A_1  L_1       
     e(  3 -  4) =      4.37434  eV     2   --> E    L_3       
     e(  5 -  5) =      9.91728  eV     1   --> A_1  L_1       
     e(  6 -  7) =     12.48645  eV     2   --> E    L_3       
     e(  8 -  8) =     12.83514  eV     1   --> A_1  L_1       
     e(  9 - 10) =     16.11308  eV     2   --> E    L_3       

 **************************************************************************

 **************************************************************************

                    xk=(  -0.22500,   0.22500,   0.22500  )

     Band symmetry, C_3v (3m)   point group:

     e(  1 -  1) =     -8.69030  eV     1   --> A_1  L_1       
     e(  2 -  2) =      1.69572  eV     1   --> A_1  L_1       
     e(  3 -  4) =      4.33771  eV     2   --> E    L_3       
     e(  5 -  5) =      9.88845  eV     1   --> A_1  L_1       
     e(  6 -  7) =     12.50780  eV     2   --> E    L_3       
     e(  8 -  8) =     13.01062  eV     1   --> A_1  L_1       
     e(  9 - 10) =     16.14291  eV     2   --> E    L_3       

 **************************************************************************

 **************************************************************************

                    xk=(  -0.23750,   0.23750,   0.23750  )

     Band symmetry, C_3v (3m)   point group:

     e(  1 -  1) =     -8.62968  eV     1   --> A_1  L_1       
     e(  2 -  2) =      1.46983  eV     1   --> A_1  L_1       
     e(  3 -  4) =      4.30132  eV     2   --> E    L_3       
     e(  5 -  5) =      9.85453  eV     1   --> A_1  L_1       
     e(  6 -  7) =     12.52087  eV     2   --> E    L_3       
     e(  8 -  8) =     13.19068  eV     1   --> A_1  L_1       
     e(  9 - 10) =     16.19191  eV     2   --> E    L_3       

 **************************************************************************

 **************************************************************************

                    xk=(  -0.25000,   0.25000,   0.25000  )

     Band symmetry, C_3v (3m)   point group:

     e(  1 -  1) =     -8.56684  eV     1   --> A_1  L_1       
     e(  2 -  2) =      1.24647  eV     1   --> A_1  L_1       
     e(  3 -  4) =      4.26541  eV     2   --> E    L_3       
     e(  5 -  5) =      9.81707  eV     1   --> A_1  L_1       
     e(  6 -  7) =     12.52569  eV     2   --> E    L_3       
     e(  8 -  8) =     13.37293  eV     1   --> A_1  L_1       
     e(  9 - 10) =     16.26010  eV     2   --> E    L_3       

 **************************************************************************

 **************************************************************************

                    xk=(  -0.26250,   0.26250,   0.26250  )

     Band symmetry, C_3v (3m)   point group:

     e(  1 -  1) =     -8.50200  eV     1   --> A_1  L_1       
     e(  2 -  2) =      1.02635  eV     1   --> A_1  L_1       
     e(  3 -  4) =      4.23025  eV     2   --> E    L_3       
     e(  5 -  5) =      9.77735  eV     1   --> A_1  L_1       
     e(  6 -  7) =     12.52275  eV     2   --> E    L_3       
     e(  8 -  8) =     13.55517  eV     1   --> A_1  L_1       
     e(  9 - 10) =     16.34710  eV     2   --> E    L_3       

 **************************************************************************

 **************************************************************************

                    xk=(  -0.27500,   0.27500,   0.27500  )

     Band symmetry, C_3v (3m)   point group:

     e(  1 -  1) =     -8.43545  eV     1   --> A_1  L_1       
     e(  2 -  2) =      0.81012  eV     1   --> A_1  L_1       
     e(  3 -  4) =      4.19582  eV     2   --> E    L_3       
     e(  5 -  5) =      9.73639  eV     1   --> A_1  L_1       
     e(  6 -  7) =     12.51258  eV     2   --> E    L_3       
     e(  8 -  8) =     13.73516  eV     1   --> A_1  L_1       
     e(  9 - 10) =     16.45182  eV     2   --> E    L_3       

 **************************************************************************

 **************************************************************************

                    xk=(  -0.28750,   0.28750,   0.28750  )

     Band symmetry, C_3v (3m)   point group:

     e(  1 -  1) =     -8.36749  eV     1   --> A_1  L_1       
     e(  2 -  2) =      0.59856  eV     1   --> A_1  L_1       
     e(  3 -  4) =      4.16242  eV     2   --> E    L_3       
     e(  5 -  5) =      9.69506  eV     1   --> A_1  L_1       
     e(  6 -  7) =     12.49618  eV     2   --> E    L_3       
     e(  8 -  8) =     13.91099  eV     1   --> A_1  L_1       
     e(  9 - 10) =     16.57336  eV     2   --> E    L_3       

 **************************************************************************

 **************************************************************************

                    xk=(  -0.30000,   0.30000,   0.30000  )

     Band symmetry, C_3v (3m)   point group:

     e(  1 -  1) =     -8.29847  eV     1   --> A_1  L_1       
     e(  2 -  2) =      0.39237  eV     1   --> A_1  L_1       
     e(  3 -  4) =      4.13018  eV     2   --> E    L_3       
     e(  5 -  5) =      9.65404  eV     1   --> A_1  L_1       
     e(  6 -  7) =     12.47461  eV     2   --> E    L_3       
     e(  8 -  8) =     14.08059  eV     1   --> A_1  L_1       
     e(  9 - 10) =     16.71049  eV     2   --> E    L_3       

 **************************************************************************

 **************************************************************************

                    xk=(  -0.31250,   0.31250,   0.31250  )

     Band symmetry, C_3v (3m)   point group:

     e(  1 -  1) =     -8.22879  eV     1   --> A_1  L_1       
     e(  2 -  2) =      0.19230  eV     1   --> A_1  L_1       
     e(  3 -  4) =      4.09926  eV     2   --> E    L_3       
     e(  5 -  5) =      9.61386  eV     1   --> A_1  L_1       
     e(  6 -  7) =     12.44896  eV     2   --> E    L_3       
     e(  8 -  8) =     14.24203  eV     1   --> A_1  L_1       
     e(  9 - 10) =     16.86184  eV     2   --> E    L_3       

 **************************************************************************

 **************************************************************************

                    xk=(  -0.32500,   0.32500,   0.32500  )

     Band symmetry, C_3v (3m)   point group:

     e(  1 -  1) =     -8.15888  eV     1   --> A_1  L_1       
     e(  2 -  2) =     -0.00090  eV     1   --> A_1  L_1       
     e(  3 -  4) =      4.06984  eV     2   --> E    L_3       
     e(  5 -  5) =      9.57499  eV     1   --> A_1  L_1       
     e(  6 -  7) =     12.42042  eV     2   --> E    L_3       
     e(  8 -  8) =     14.39351  eV     1   --> A_1  L_1       
     e(  9 - 10) =     17.02605  eV     2   --> E    L_3       

 **************************************************************************

 **************************************************************************

                    xk=(  -0.33750,   0.33750,   0.33750  )

     Band symmetry, C_3v (3m)   point group:

     e(  1 -  1) =     -8.08925  eV     1   --> A_1  L_1       
     e(  2 -  2) =     -0.18643  eV     1   --> A_1  L_1       
     e(  3 -  4) =      4.04193  eV     2   --> E    L_3       
     e(  5 -  5) =      9.53780  eV     1   --> A_1  L_1       
     e(  6 -  7) =     12.38984  eV     2   --> E    L_3       
     e(  8 -  8) =     14.53339  eV     1   --> A_1  L_1       
     e(  9 - 10) =     17.20160  eV     2   --> E    L_3       

 **************************************************************************

 **************************************************************************

                    xk=(  -0.35000,   0.35000,   0.35000  )

     Band symmetry, C_3v (3m)   point group:

     e(  1 -  1) =     -8.02046  eV     1   --> A_1  L_1       
     e(  2 -  2) =     -0.36360  eV     1   --> A_1  L_1       
     e(  3 -  4) =      4.01568  eV     2   --> E    L_3       
     e(  5 -  5) =      9.50252  eV     1   --> A_1  L_1       
     e(  6 -  7) =     12.35825  eV     2   --> E    L_3       
     e(  8 -  8) =     14.66028  eV     1   --> A_1  L_1       
     e(  9 - 10) =     17.38690  eV     2   --> E    L_3       

 **************************************************************************

 **************************************************************************

                    xk=(  -0.36250,   0.36250,   0.36250  )

     Band symmetry, C_3v (3m)   point group:

     e(  1 -  1) =     -7.95310  eV     1   --> A_1  L_1       
     e(  2 -  2) =     -0.53148  eV     1   --> A_1  L_1       
     e(  3 -  4) =      3.99110  eV     2   --> E    L_3       
     e(  5 -  5) =      9.46937  eV     1   --> A_1  L_1       
     e(  6 -  7) =     12.32637  eV     2   --> E    L_3       
     e(  8 -  8) =     14.77347  eV     1   --> A_1  L_1       
     e(  9 - 10) =     17.58051  eV     2   --> E    L_3       

 **************************************************************************

 **************************************************************************

                    xk=(  -0.37500,   0.37500,   0.37500  )

     Band symmetry, C_3v (3m)   point group:

     e(  1 -  1) =     -7.88781  eV     1   --> A_1  L_1       
     e(  2 -  2) =     -0.68919  eV     1   --> A_1  L_1       
     e(  3 -  4) =      3.96850  eV     2   --> E    L_3       
     e(  5 -  5) =      9.43868  eV     1   --> A_1  L_1       
     e(  6 -  7) =     12.29524  eV     2   --> E    L_3       
     e(  8 -  8) =     14.87249  eV     1   --> A_1  L_1       
     e(  9 - 10) =     17.78112  eV     2   --> E    L_3       

 **************************************************************************

 **************************************************************************

                    xk=(  -0.38750,   0.38750,   0.38750  )

     Band symmetry, C_3v (3m)   point group:

     e(  1 -  1) =     -7.82533  eV     1   --> A_1  L_1       
     e(  2 -  2) =     -0.83586  eV     1   --> A_1  L_1       
     e(  3 -  4) =      3.94783  eV     2   --> E    L_3       
     e(  5 -  5) =      9.41054  eV     1   --> A_1  L_1       
     e(  6 -  7) =     12.26538  eV     2   --> E    L_3       
     e(  8 -  8) =     14.95743  eV     1   --> A_1  L_1       
     e(  9 - 10) =     17.98670  eV     2   --> E    L_3       

 **************************************************************************

 **************************************************************************

                    xk=(  -0.40000,   0.40000,   0.40000  )

     Band symmetry, C_3v (3m)   point group:

     e(  1 -  1) =     -7.76643  eV     1   --> A_1  L_1       
     e(  2 -  2) =     -0.97057  eV     1   --> A_1  L_1       
     e(  3 -  4) =      3.92908  eV     2   --> E    L_3       
     e(  5 -  5) =      9.38505  eV     1   --> A_1  L_1       
     e(  6 -  7) =     12.23722  eV     2   --> E    L_3       
     e(  8 -  8) =     15.02884  eV     1   --> A_1  L_1       
     e(  9 - 10) =     18.19487  eV     2   --> E    L_3       

 **************************************************************************

 **************************************************************************

                    xk=(  -0.41250,   0.41250,   0.41250  )

     Band symmetry, C_3v (3m)   point group:

     e(  1 -  1) =     -7.71186  eV     1   --> A_1  L_1       
     e(  2 -  2) =     -1.09234  eV     1   --> A_1  L_1       
     e(  3 -  4) =      3.91248  eV     2   --> E    L_3       
     e(  5 -  5) =      9.36238  eV     1   --> A_1  L_1       
     e(  6 -  7) =     12.21146  eV     2   --> E    L_3       
     e(  8 -  8) =     15.08776  eV     1   --> A_1  L_1       
     e(  9 - 10) =     18.40355  eV     2   --> E    L_3       

 **************************************************************************

 **************************************************************************

                    xk=(  -0.42500,   0.42500,   0.42500  )

     Band symmetry, C_3v (3m)   point group:

     e(  1 -  1) =     -7.66244  eV     1   --> A_1  L_1       
     e(  2 -  2) =     -1.20030  eV     1   --> A_1  L_1       
     e(  3 -  4) =      3.89798  eV     2   --> E    L_3       
     e(  5 -  5) =      9.34254  eV     1   --> A_1  L_1       
     e(  6 -  7) =     12.18839  eV     2   --> E    L_3       
     e(  8 -  8) =     15.13525  eV     1   --> A_1  L_1       
     e(  9 - 10) =     18.60904  eV     2   --> E    L_3       

 **************************************************************************

 **************************************************************************

                    xk=(  -0.43750,   0.43750,   0.43750  )

     Band symmetry, C_3v (3m)   point group:

     e(  1 -  1) =     -7.61896  eV     1   --> A_1  L_1       
     e(  2 -  2) =     -1.29348  eV     1   --> A_1  L_1       
     e(  3 -  4) =      3.88565  eV     2   --> E    L_3       
     e(  5 -  5) =      9.32569  eV     1   --> A_1  L_1       
     e(  6 -  7) =     12.16835  eV     2   --> E    L_3       
     e(  8 -  8) =     15.17280  eV     1   --> A_1  L_1       
     e(  9 - 10) =     18.80700  eV     2   --> E    L_3       

 **************************************************************************

 **************************************************************************

                    xk=(  -0.45000,   0.45000,   0.45000  )

     Band symmetry, C_3v (3m)   point group:

     e(  1 -  1) =     -7.58216  eV     1   --> A_1  L_1       
     e(  2 -  2) =     -1.37105  eV     1   --> A_1  L_1       
     e(  3 -  4) =      3.87551  eV     2   --> E    L_3       
     e(  5 -  5) =      9.31183  eV     1   --> A_1  L_1       
     e(  6 -  7) =     12.15161  eV     2   --> E    L_3       
     e(  8 -  8) =     15.20158  eV     1   --> A_1  L_1       
     e(  9 - 10) =     18.99120  eV     2   --> E    L_3       

 **************************************************************************

 **************************************************************************

                    xk=(  -0.46250,   0.46250,   0.46250  )

     Band symmetry, C_3v (3m)   point group:

     e(  1 -  1) =     -7.55276  eV     1   --> A_1  L_1       
     e(  2 -  2) =     -1.43229  eV     1   --> A_1  L_1       
     e(  3 -  4) =      3.86757  eV     2   --> E    L_3       
     e(  5 -  5) =      9.30101  eV     1   --> A_1  L_1       
     e(  6 -  7) =     12.13833  eV     2   --> E    L_3       
     e(  8 -  8) =     15.22269  eV     1   --> A_1  L_1       
     e(  9 - 10) =     19.15316  eV     2   --> E    L_3       

 **************************************************************************

 **************************************************************************

                    xk=(  -0.47500,   0.47500,   0.47500  )

     Band symmetry, C_3v (3m)   point group:

     e(  1 -  1) =     -7.53130  eV     1   --> A_1  L_1       
     e(  2 -  2) =     -1.47649  eV     1   --> A_1  L_1       
     e(  3 -  4) =      3.86192  eV     2   --> E    L_3       
     e(  5 -  5) =      9.29323  eV     1   --> A_1  L_1       
     e(  6 -  7) =     12.12879  eV     2   --> E    L_3       
     e(  8 -  8) =     15.23705  eV     1   --> A_1  L_1       
     e(  9 - 10) =     19.28273  eV     2   --> E    L_3       

 **************************************************************************

 **************************************************************************

                    xk=(  -0.48750,   0.48750,   0.48750  )

     Band symmetry, C_3v (3m)   point group:

     e(  1 -  1) =     -7.51824  eV     1   --> A_1  L_1       
     e(  2 -  2) =     -1.50322  eV     1   --> A_1  L_1       
     e(  3 -  4) =      3.85852  eV     2   --> E    L_3       
     e(  5 -  5) =      9.28857  eV     1   --> A_1  L_1       
     e(  6 -  7) =     12.12301  eV     2   --> E    L_3       
     e(  8 -  8) =     15.24542  eV     1   --> A_1  L_1       
     e(  9 - 10) =     19.36737  eV     2   --> E    L_3       

 **************************************************************************

 **************************************************************************

                    xk=(  -0.50000,   0.50000,   0.50000  )

     Band symmetry, C_3v (3m)   point group:

     e(  1 -  1) =     -7.51386  eV     1   --> A_1  L_1       
     e(  2 -  2) =     -1.51217  eV     1   --> A_1  L_1       
     e(  3 -  4) =      3.85738  eV     2   --> E    L_3       
     e(  5 -  5) =      9.28701  eV     1   --> A_1  L_1       
     e(  6 -  7) =     12.12107  eV     2   --> E    L_3       
     e(  8 -  8) =     15.24816  eV     1   --> A_1  L_1       
     e(  9 - 10) =     19.39697  eV     2   --> E    L_3       

 **************************************************************************

 **************************************************************************

                    xk=(  -0.50000,   0.48750,   0.51250  )

     point group C_1 (1)    
     there are  1 classes
     the character table:

       E    
A      1.00

     the symmetry operations in each class and the name of the first element:

     E        1
                                                                 

     Band symmetry, C_1 (1)     point group:

     e(  1 -  1) =     -7.51297  eV     1   --> A              
     e(  2 -  2) =     -1.51079  eV     1   --> A              
     e(  3 -  3) =      3.84879  eV     1   --> A              
     e(  4 -  4) =      3.85540  eV     1   --> A              
     e(  5 -  5) =      9.29560  eV     1   --> A              
     e(  6 -  6) =     12.11362  eV     1   --> A              
     e(  7 -  7) =     12.12593  eV     1   --> A              
     e(  8 -  8) =     15.25385  eV     1   --> A              
     e(  9 -  9) =     19.28531  eV     1   --> A              
     e( 10 - 10) =     19.39158  eV     1   --> A              

 **************************************************************************

 **************************************************************************

                    xk=(  -0.50000,   0.47500,   0.52500  )

     Band symmetry, C_1 (1)     point group:

     e(  1 -  1) =     -7.51030  eV     1   --> A              
     e(  2 -  2) =     -1.50668  eV     1   --> A              
     e(  3 -  3) =      3.82324  eV     1   --> A              
     e(  4 -  4) =      3.84945  eV     1   --> A              
     e(  5 -  5) =      9.32110  eV     1   --> A              
     e(  6 -  6) =     12.09164  eV     1   --> A              
     e(  7 -  7) =     12.14053  eV     1   --> A              
     e(  8 -  8) =     15.27030  eV     1   --> A              
     e(  9 -  9) =     19.16728  eV     1   --> A              
     e( 10 - 10) =     19.37547  eV     1   --> A              

 **************************************************************************

 **************************************************************************

                    xk=(  -0.50000,   0.46250,   0.53750  )

     Band symmetry, C_1 (1)     point group:

     e(  1 -  1) =     -7.50587  eV     1   --> A              
     e(  2 -  2) =     -1.49982  eV     1   --> A              
     e(  3 -  3) =      3.78150  eV     1   --> A              
     e(  4 -  4) =      3.83955  eV     1   --> A              
     e(  5 -  5) =      9.36276  eV     1   --> A              
     e(  6 -  6) =     12.05622  eV     1   --> A              
     e(  7 -  7) =     12.16508  eV     1   --> A              
     e(  8 -  8) =     15.29582  eV     1   --> A              
     e(  9 -  9) =     19.05428  eV     1   --> A              
     e( 10 - 10) =     19.34881  eV     1   --> A              

 **************************************************************************

 **************************************************************************

                    xk=(  -0.50000,   0.45000,   0.55000  )

     Band symmetry, C_1 (1)     point group:

     e(  1 -  1) =     -7.49970  eV     1   --> A              
     e(  2 -  2) =     -1.49024  eV     1   --> A              
     e(  3 -  3) =      3.72436  eV     1   --> A              
     e(  4 -  4) =      3.82564  eV     1   --> A              
     e(  5 -  5) =      9.41931  eV     1   --> A              
     e(  6 -  6) =     12.00885  eV     1   --> A              
     e(  7 -  7) =     12.19956  eV     1   --> A              
     e(  8 -  8) =     15.32771  eV     1   --> A              
     e(  9 -  9) =     18.94812  eV     1   --> A              
     e( 10 - 10) =     19.31192  eV     1   --> A              

 **************************************************************************

 **************************************************************************

                    xk=(  -0.50000,   0.43750,   0.56250  )

     Band symmetry, C_1 (1)     point group:

     e(  1 -  1) =     -7.49179  eV     1   --> A              
     e(  2 -  2) =     -1.47795  eV     1   --> A              
     e(  3 -  3) =      3.65323  eV     1   --> A              
     e(  4 -  4) =      3.80777  eV     1   --> A              
     e(  5 -  5) =      9.48921  eV     1   --> A              
     e(  6 -  6) =     11.95156  eV     1   --> A              
     e(  7 -  7) =     12.24429  eV     1   --> A              
     e(  8 -  8) =     15.36260  eV     1   --> A              
     e(  9 -  9) =     18.85035  eV     1   --> A              
     e( 10 - 10) =     19.26580  eV     1   --> A              

 **************************************************************************

 **************************************************************************

                    xk=(  -0.50000,   0.42500,   0.57500  )

     Band symmetry, C_1 (1)     point group:

     e(  1 -  1) =     -7.48219  eV     1   --> A              
     e(  2 -  2) =     -1.46297  eV     1   --> A              
     e(  3 -  3) =      3.56958  eV     1   --> A              
     e(  4 -  4) =      3.78590  eV     1   --> A              
     e(  5 -  5) =      9.57065  eV     1   --> A              
     e(  6 -  6) =     11.88637  eV     1   --> A              
     e(  7 -  7) =     12.29955  eV     1   --> A              
     e(  8 -  8) =     15.39668  eV     1   --> A              
     e(  9 -  9) =     18.76194  eV     1   --> A              
     e( 10 - 10) =     19.21207  eV     1   --> A              

 **************************************************************************

 **************************************************************************

                    xk=(  -0.50000,   0.41250,   0.58750  )

     Band symmetry, C_1 (1)     point group:

     e(  1 -  1) =     -7.47092  eV     1   --> A              
     e(  2 -  2) =     -1.44533  eV     1   --> A              
     e(  3 -  3) =      3.47495  eV     1   --> A              
     e(  4 -  4) =      3.75997  eV     1   --> A              
     e(  5 -  5) =      9.66165  eV     1   --> A              
     e(  6 -  6) =     11.81531  eV     1   --> A              
     e(  7 -  7) =     12.36560  eV     1   --> A              
     e(  8 -  8) =     15.42597  eV     1   --> A              
     e(  9 -  9) =     18.68274  eV     1   --> A              
     e( 10 - 10) =     19.15366  eV     1   --> A              

 **************************************************************************

 **************************************************************************

                    xk=(  -0.50000,   0.40000,   0.60000  )

     Band symmetry, C_1 (1)     point group:

     e(  1 -  1) =     -7.45802  eV     1   --> A              
     e(  2 -  2) =     -1.42505  eV     1   --> A              
     e(  3 -  3) =      3.37096  eV     1   --> A              
     e(  4 -  4) =      3.72994  eV     1   --> A              
     e(  5 -  5) =      9.76019  eV     1   --> A              
     e(  6 -  6) =     11.74038  eV     1   --> A              
     e(  7 -  7) =     12.44266  eV     1   --> A              
     e(  8 -  8) =     15.44679  eV     1   --> A              
     e(  9 -  9) =     18.61074  eV     1   --> A              
     e( 10 - 10) =     19.09559  eV     1   --> A              

 **************************************************************************

 **************************************************************************

                    xk=(  -0.50000,   0.38750,   0.61250  )

     Band symmetry, C_1 (1)     point group:

     e(  1 -  1) =     -7.44355  eV     1   --> A              
     e(  2 -  2) =     -1.40218  eV     1   --> A              
     e(  3 -  3) =      3.25914  eV     1   --> A              
     e(  4 -  4) =      3.69586  eV     1   --> A              
     e(  5 -  5) =      9.86435  eV     1   --> A              
     e(  6 -  6) =     11.66344  eV     1   --> A              
     e(  7 -  7) =     12.53098  eV     1   --> A              
     e(  8 -  8) =     15.45598  eV     1   --> A              
     e(  9 -  9) =     18.54119  eV     1   --> A              
     e( 10 - 10) =     19.04517  eV     1   --> A              

 **************************************************************************

 **************************************************************************

                    xk=(  -0.50000,   0.37500,   0.62500  )

     Band symmetry, C_1 (1)     point group:

     e(  1 -  1) =     -7.42755  eV     1   --> A              
     e(  2 -  2) =     -1.37672  eV     1   --> A              
     e(  3 -  3) =      3.14102  eV     1   --> A              
     e(  4 -  4) =      3.65771  eV     1   --> A              
     e(  5 -  5) =      9.97228  eV     1   --> A              
     e(  6 -  6) =     11.58619  eV     1   --> A              
     e(  7 -  7) =     12.63073  eV     1   --> A              
     e(  8 -  8) =     15.45137  eV     1   --> A              
     e(  9 -  9) =     18.46730  eV     1   --> A              
     e( 10 - 10) =     19.01158  eV     1   --> A              

 **************************************************************************

 **************************************************************************

                    xk=(  -0.50000,   0.36250,   0.63750  )

     Band symmetry, C_1 (1)     point group:

     e(  1 -  1) =     -7.41009  eV     1   --> A              
     e(  2 -  2) =     -1.34881  eV     1   --> A              
     e(  3 -  3) =      3.01782  eV     1   --> A              
     e(  4 -  4) =      3.61545  eV     1   --> A              
     e(  5 -  5) =     10.08212  eV     1   --> A              
     e(  6 -  6) =     11.50999  eV     1   --> A              
     e(  7 -  7) =     12.74178  eV     1   --> A              
     e(  8 -  8) =     15.43147  eV     1   --> A              
     e(  9 -  9) =     18.38208  eV     1   --> A              
     e( 10 - 10) =     19.00235  eV     1   --> A              

 **************************************************************************

 **************************************************************************

                    xk=(  -0.50000,   0.35000,   0.65000  )

     Band symmetry, C_1 (1)     point group:

[...]
     e( 10 - 10) =     19.06126  eV     1   --> A'             

 **************************************************************************

 **************************************************************************

                    xk=(  -0.37500,   0.00000,   0.37500  )

     Band symmetry, C_s (m)     point group:

     e(  1 -  1) =     -8.24754  eV     1   --> A'             
     e(  2 -  2) =      0.96532  eV     1   --> A'             
     e(  3 -  3) =      2.62868  eV     1   --> A'             
     e(  4 -  4) =      4.27319  eV     1   --> A''            
     e(  5 -  5) =     11.16387  eV     1   --> A'             
     e(  6 -  6) =     12.09565  eV     1   --> A'             
     e(  7 -  7) =     12.76541  eV     1   --> A'             
     e(  8 -  8) =     13.00166  eV     1   --> A''            
     e(  9 -  9) =     14.92671  eV     1   --> A''            
     e( 10 - 10) =     18.68483  eV     1   --> A'             

 **************************************************************************

 **************************************************************************

                    xk=(  -0.35625,   0.00000,   0.35625  )

     Band symmetry, C_s (m)     point group:

     e(  1 -  1) =     -8.33673  eV     1   --> A'             
     e(  2 -  2) =      1.15980  eV     1   --> A'             
     e(  3 -  3) =      2.79452  eV     1   --> A'             
     e(  4 -  4) =      4.33311  eV     1   --> A''            
     e(  5 -  5) =     11.13280  eV     1   --> A'             
     e(  6 -  6) =     11.99501  eV     1   --> A'             
     e(  7 -  7) =     12.80577  eV     1   --> A'             
     e(  8 -  8) =     12.90957  eV     1   --> A''            
     e(  9 -  9) =     14.91522  eV     1   --> A''            
     e( 10 - 10) =     18.32674  eV     1   --> A'             

 **************************************************************************

 **************************************************************************

                    xk=(  -0.33750,   0.00000,   0.33750  )

     Band symmetry, C_s (m)     point group:

     e(  1 -  1) =     -8.42346  eV     1   --> A'             
     e(  2 -  2) =      1.36300  eV     1   --> A'             
     e(  3 -  3) =      2.95995  eV     1   --> A'             
     e(  4 -  4) =      4.38890  eV     1   --> A''            
     e(  5 -  5) =     11.07625  eV     1   --> A'             
     e(  6 -  6) =     11.90831  eV     1   --> A'             
     e(  7 -  7) =     12.81886  eV     1   --> A''            
     e(  8 -  8) =     12.85596  eV     1   --> A'             
     e(  9 -  9) =     14.92493  eV     1   --> A''            
     e( 10 - 10) =     17.99114  eV     1   --> A'             

 **************************************************************************

 **************************************************************************

                    xk=(  -0.31875,   0.00000,   0.31875  )

     Band symmetry, C_s (m)     point group:

     e(  1 -  1) =     -8.50730  eV     1   --> A'             
     e(  2 -  2) =      1.57408  eV     1   --> A'             
     e(  3 -  3) =      3.12394  eV     1   --> A'             
     e(  4 -  4) =      4.44042  eV     1   --> A''            
     e(  5 -  5) =     10.99916  eV     1   --> A'             
     e(  6 -  6) =     11.83541  eV     1   --> A'             
     e(  7 -  7) =     12.72957  eV     1   --> A''            
     e(  8 -  8) =     12.90652  eV     1   --> A'             
     e(  9 -  9) =     14.95542  eV     1   --> A''            
     e( 10 - 10) =     17.68327  eV     1   --> A'             

 **************************************************************************

 **************************************************************************

                    xk=(  -0.30000,   0.00000,   0.30000  )

     Band symmetry, C_s (m)     point group:

     e(  1 -  1) =     -8.58787  eV     1   --> A'             
     e(  2 -  2) =      1.79219  eV     1   --> A'             
     e(  3 -  3) =      3.28554  eV     1   --> A'             
     e(  4 -  4) =      4.48767  eV     1   --> A''            
     e(  5 -  5) =     10.90637  eV     1   --> A'             
     e(  6 -  6) =     11.77597  eV     1   --> A'             
     e(  7 -  7) =     12.64207  eV     1   --> A''            
     e(  8 -  8) =     12.94813  eV     1   --> A'             
     e(  9 -  9) =     15.00619  eV     1   --> A''            
     e( 10 - 10) =     17.40875  eV     1   --> A'             

 **************************************************************************

 **************************************************************************

                    xk=(  -0.28125,   0.00000,   0.28125  )

     Band symmetry, C_s (m)     point group:

     e(  1 -  1) =     -8.66483  eV     1   --> A'             
     e(  2 -  2) =      2.01630  eV     1   --> A'             
     e(  3 -  3) =      3.44362  eV     1   --> A'             
     e(  4 -  4) =      4.53050  eV     1   --> A''            
     e(  5 -  5) =     10.80186  eV     1   --> A'             
     e(  6 -  6) =     11.72931  eV     1   --> A'             
     e(  7 -  7) =     12.55672  eV     1   --> A''            
     e(  8 -  8) =     12.97208  eV     1   --> A'             
     e(  9 -  9) =     15.07614  eV     1   --> A''            
     e( 10 - 10) =     17.17317  eV     1   --> A'             

 **************************************************************************

 **************************************************************************

                    xk=(  -0.26250,   0.00000,   0.26250  )

     Band symmetry, C_s (m)     point group:

     e(  1 -  1) =     -8.73786  eV     1   --> A'             
     e(  2 -  2) =      2.24561  eV     1   --> A'             
     e(  3 -  3) =      3.59741  eV     1   --> A'             
     e(  4 -  4) =      4.56941  eV     1   --> A''            
     e(  5 -  5) =     10.68856  eV     1   --> A'             
     e(  6 -  6) =     11.69470  eV     1   --> A'             
     e(  7 -  7) =     12.47436  eV     1   --> A''            
     e(  8 -  8) =     12.97160  eV     1   --> A'             
     e(  9 -  9) =     15.16479  eV     1   --> A''            
     e( 10 - 10) =     16.98145  eV     1   --> A'             

 **************************************************************************

 **************************************************************************

                    xk=(  -0.24375,   0.00000,   0.24375  )

     Band symmetry, C_s (m)     point group:

     e(  1 -  1) =     -8.80673  eV     1   --> A'             
     e(  2 -  2) =      2.47890  eV     1   --> A'             
     e(  3 -  3) =      3.74567  eV     1   --> A'             
     e(  4 -  4) =      4.60424  eV     1   --> A''            
     e(  5 -  5) =     10.56833  eV     1   --> A'             
     e(  6 -  6) =     11.67115  eV     1   --> A'             
     e(  7 -  7) =     12.39526  eV     1   --> A''            
     e(  8 -  8) =     12.94213  eV     1   --> A'             
     e(  9 -  9) =     15.27046  eV     1   --> A''            
     e( 10 - 10) =     16.83652  eV     1   --> A'             

 **************************************************************************

 **************************************************************************

                    xk=(  -0.22500,   0.00000,   0.22500  )

     Band symmetry, C_s (m)     point group:

     e(  1 -  1) =     -8.87122  eV     1   --> A'             
     e(  2 -  2) =      2.71474  eV     1   --> A'             
     e(  3 -  3) =      3.88729  eV     1   --> A'             
     e(  4 -  4) =      4.63516  eV     1   --> A''            
     e(  5 -  5) =     10.44236  eV     1   --> A'             
     e(  6 -  6) =     11.65796  eV     1   --> A'             
     e(  7 -  7) =     12.31999  eV     1   --> A''            
     e(  8 -  8) =     12.88266  eV     1   --> A'             
     e(  9 -  9) =     15.39160  eV     1   --> A''            
     e( 10 - 10) =     16.73816  eV     1   --> A'             

 **************************************************************************

 **************************************************************************

                    xk=(  -0.20625,   0.00000,   0.20625  )

     Band symmetry, C_s (m)     point group:

     e(  1 -  1) =     -8.93111  eV     1   --> A'             
     e(  2 -  2) =      2.95194  eV     1   --> A'             
     e(  3 -  3) =      4.02149  eV     1   --> A'             
     e(  4 -  4) =      4.66256  eV     1   --> A''            
     e(  5 -  5) =     10.31134  eV     1   --> A'             
     e(  6 -  6) =     11.65449  eV     1   --> A'             
     e(  7 -  7) =     12.24918  eV     1   --> A''            
     e(  8 -  8) =     12.79616  eV     1   --> A'             
     e(  9 -  9) =     15.52705  eV     1   --> A''            
     e( 10 - 10) =     16.68319  eV     1   --> A'             

 **************************************************************************

 **************************************************************************

                    xk=(  -0.18750,   0.00000,   0.18750  )

     Band symmetry, C_s (m)     point group:

     e(  1 -  1) =     -8.98626  eV     1   --> A'             
     e(  2 -  2) =      3.18858  eV     1   --> A'             
     e(  3 -  3) =      4.14719  eV     1   --> A'             
     e(  4 -  4) =      4.68644  eV     1   --> A''            
     e(  5 -  5) =     10.17566  eV     1   --> A'             
     e(  6 -  6) =     11.65973  eV     1   --> A'             
     e(  7 -  7) =     12.18316  eV     1   --> A''            
     e(  8 -  8) =     12.68853  eV     1   --> A'             
     e(  9 -  9) =     15.67439  eV     1   --> A''            
     e( 10 - 10) =     16.66505  eV     1   --> A'             

 **************************************************************************

 **************************************************************************

                    xk=(  -0.16875,   0.00000,   0.16875  )

     Band symmetry, C_s (m)     point group:

     e(  1 -  1) =     -9.03651  eV     1   --> A'             
     e(  2 -  2) =      3.42266  eV     1   --> A'             
     e(  3 -  3) =      4.26345  eV     1   --> A'             
     e(  4 -  4) =      4.70717  eV     1   --> A''            
     e(  5 -  5) =     10.03590  eV     1   --> A'             
     e(  6 -  6) =     11.67262  eV     1   --> A'             
     e(  7 -  7) =     12.12237  eV     1   --> A''            
     e(  8 -  8) =     12.56758  eV     1   --> A'             
     e(  9 -  9) =     15.83181  eV     1   --> A''            
     e( 10 - 10) =     16.67571  eV     1   --> A'             

 **************************************************************************

 **************************************************************************

                    xk=(  -0.15000,   0.00000,   0.15000  )

     Band symmetry, C_s (m)     point group:

     e(  1 -  1) =     -9.08176  eV     1   --> A'             
     e(  2 -  2) =      3.65151  eV     1   --> A'             
     e(  3 -  3) =      4.36954  eV     1   --> A'             
     e(  4 -  4) =      4.72491  eV     1   --> A''            
     e(  5 -  5) =      9.89303  eV     1   --> A'             
     e(  6 -  6) =     11.69181  eV     1   --> A'             
     e(  7 -  7) =     12.06716  eV     1   --> A''            
     e(  8 -  8) =     12.44137  eV     1   --> A'             
     e(  9 -  9) =     15.99630  eV     1   --> A''            
     e( 10 - 10) =     16.70647  eV     1   --> A'             

 **************************************************************************

 **************************************************************************

                    xk=(  -0.13125,   0.00000,   0.13125  )

     Band symmetry, C_s (m)     point group:

     e(  1 -  1) =     -9.12188  eV     1   --> A'             
     e(  2 -  2) =      3.87222  eV     1   --> A'             
     e(  3 -  3) =      4.46469  eV     1   --> A'             
     e(  4 -  4) =      4.73996  eV     1   --> A''            
     e(  5 -  5) =      9.74882  eV     1   --> A'             
     e(  6 -  6) =     11.71569  eV     1   --> A'             
     e(  7 -  7) =     12.01781  eV     1   --> A''            
     e(  8 -  8) =     12.31739  eV     1   --> A'             
     e(  9 -  9) =     16.16491  eV     1   --> A''            
     e( 10 - 10) =     16.74945  eV     1   --> A'             

 **************************************************************************

 **************************************************************************

                    xk=(  -0.11250,   0.00000,   0.11250  )

     Band symmetry, C_s (m)     point group:

     e(  1 -  1) =     -9.15681  eV     1   --> A'             
     e(  2 -  2) =      4.08105  eV     1   --> A'             
     e(  3 -  3) =      4.54827  eV     1   --> A'             
     e(  4 -  4) =      4.75251  eV     1   --> A''            
     e(  5 -  5) =      9.60608  eV     1   --> A'             
     e(  6 -  6) =     11.74235  eV     1   --> A'             
     e(  7 -  7) =     11.97458  eV     1   --> A''            
     e(  8 -  8) =     12.20157  eV     1   --> A'             
     e(  9 -  9) =     16.33355  eV     1   --> A''            
     e( 10 - 10) =     16.79779  eV     1   --> A'             

 **************************************************************************

 **************************************************************************

                    xk=(  -0.09375,   0.00000,   0.09375  )

     Band symmetry, C_s (m)     point group:

     e(  1 -  1) =     -9.18647  eV     1   --> A'             
     e(  2 -  2) =      4.27342  eV     1   --> A'             
     e(  3 -  3) =      4.61976  eV     1   --> A'             
     e(  4 -  4) =      4.76274  eV     1   --> A''            
     e(  5 -  5) =      9.46891  eV     1   --> A'             
     e(  6 -  6) =     11.76990  eV     1   --> A'             
     e(  7 -  7) =     11.93766  eV     1   --> A''            
     e(  8 -  8) =     12.09867  eV     1   --> A'             
     e(  9 -  9) =     16.49686  eV     1   --> A''            
     e( 10 - 10) =     16.84591  eV     1   --> A'             

 **************************************************************************

 **************************************************************************

                    xk=(  -0.07500,   0.00000,   0.07500  )

     Band symmetry, C_s (m)     point group:

     e(  1 -  1) =     -9.21082  eV     1   --> A'             
     e(  2 -  2) =      4.44381  eV     1   --> A'             
     e(  3 -  3) =      4.67876  eV     1   --> A'             
     e(  4 -  4) =      4.77085  eV     1   --> A''            
     e(  5 -  5) =      9.34270  eV     1   --> A'             
     e(  6 -  6) =     11.79620  eV     1   --> A'             
     e(  7 -  7) =     11.90723  eV     1   --> A''            
     e(  8 -  8) =     12.01164  eV     1   --> A'             
     e(  9 -  9) =     16.64849  eV     1   --> A''            
     e( 10 - 10) =     16.88951  eV     1   --> A'             

 **************************************************************************

 **************************************************************************

                    xk=(  -0.05625,   0.00000,   0.05625  )

     Band symmetry, C_s (m)     point group:

     e(  1 -  1) =     -9.22979  eV     1   --> A'             
     e(  2 -  2) =      4.58616  eV     1   --> A'             
     e(  3 -  3) =      4.72497  eV     1   --> A'             
     e(  4 -  4) =      4.77706  eV     1   --> A''            
     e(  5 -  5) =      9.23390  eV     1   --> A'             
     e(  6 -  6) =     11.81926  eV     1   --> A'             
     e(  7 -  7) =     11.88352  eV     1   --> A''            
     e(  8 -  8) =     11.94267  eV     1   --> A'             
     e(  9 -  9) =     16.78068  eV     1   --> A''            
     e( 10 - 10) =     16.92570  eV     1   --> A'             

 **************************************************************************

 **************************************************************************

                    xk=(  -0.03750,   0.00000,   0.03750  )

     Band symmetry, C_s (m)     point group:

     e(  1 -  1) =     -9.24337  eV     1   --> A'             
     e(  2 -  2) =      4.69405  eV     1   --> A'             
     e(  3 -  3) =      4.75811  eV     1   --> A'             
     e(  4 -  4) =      4.78136  eV     1   --> A''            
     e(  5 -  5) =      9.14941  eV     1   --> A'             
     e(  6 -  6) =     11.83725  eV     1   --> A'             
     e(  7 -  7) =     11.86645  eV     1   --> A''            
     e(  8 -  8) =     11.89281  eV     1   --> A'             
     e(  9 -  9) =     16.88456  eV     1   --> A''            
     e( 10 - 10) =     16.95256  eV     1   --> A'             

 **************************************************************************

 **************************************************************************

                    xk=(  -0.01875,   0.00000,   0.01875  )

     Band symmetry, C_s (m)     point group:

     e(  1 -  1) =     -9.25153  eV     1   --> A'             
     e(  2 -  2) =      4.76163  eV     1   --> A'             
     e(  3 -  3) =      4.77805  eV     1   --> A'             
     e(  4 -  4) =      4.78395  eV     1   --> A''            
     e(  5 -  5) =      9.09564  eV     1   --> A'             
     e(  6 -  6) =     11.84868  eV     1   --> A'             
     e(  7 -  7) =     11.85618  eV     1   --> A''            
     e(  8 -  8) =     11.86277  eV     1   --> A'             
     e(  9 -  9) =     16.95144  eV     1   --> A''            
     e( 10 - 10) =     16.96906  eV     1   --> A'             

 **************************************************************************

 **************************************************************************

                    xk=(   0.00000,   0.00000,   0.00000  )

     point group T_d (-43m) 
     there are  5 classes
     the character table:

       E     8C3   3C2   6S4   6s_d 
A_1    1.00  1.00  1.00  1.00  1.00
A_2    1.00  1.00  1.00 -1.00 -1.00
E      2.00 -1.00  2.00  0.00  0.00
T_1    3.00  0.00 -1.00  1.00 -1.00
T_2    3.00  0.00 -1.00 -1.00  1.00

     the symmetry operations in each class and the name of the first element:

     E        1
                                                                 
     8C3      5    7    8    6   12    9   10   11
                                                                 
     3C2      2    3    4
                                                                 
     6S4     15   16   20   19   23   24
                                                                 
     6s_d    13   14   17   18   21   22
                                                                 

     Band symmetry, T_d (-43m)  point group:

     e(  1 -  1) =     -9.25423  eV     1   --> A_1  G_1  P_1  
     e(  2 -  4) =      4.78484  eV     3   --> T_2  G_15 P_4  
     e(  5 -  5) =      9.07718  eV     1   --> A_1  G_1  P_1  
     e(  6 -  8) =     11.85284  eV     3   --> T_2  G_15 P_4  
     e(  9 - 10) =     16.97476  eV     2   --> E    G_12 P_3  

 **************************************************************************

     BANDS        :      4.19s CPU      4.36s WALL


   This run was terminated on:  17:56:36  30May2024            

=------------------------------------------------------------------------------=
   JOB DONE.
=------------------------------------------------------------------------------=
