
     Program PWSCF v.7.2 starts on  8Jun2024 at 21:22:43 

     This program is part of the open-source Quantum ESPRESSO suite
     for quantum simulation of materials; please cite
         "P. Giannozzi et al., J. Phys.:Condens. Matter 21 395502 (2009);
         "P. Giannozzi et al., J. Phys.:Condens. Matter 29 465901 (2017);
         "P. Giannozzi et al., J. Chem. Phys. 152 154105 (2020);
          URL http://www.quantum-espresso.org", 
     in publications or presentations arising from this work. More details at
     http://www.quantum-espresso.org/quote

     Serial version
     9887 MiB available memory on the printing compute node when the environment starts

     Waiting for input...
     Reading input from standard input

     Current dimensions of program PWSCF are:
     Max number of different atomic species (ntypx) = 10
     Max number of k-points (npk) =  40000
     Max angular momentum in pseudopotentials (lmaxx) =  4

     Atomic positions and unit cell read from directory:
     ./SCRATCH/zns.save/



     G-vector sticks info
     --------------------
     sticks:   dense  smooth     PW     G-vecs:    dense   smooth      PW
     Sum         871     871    253                16961    16961    2733

     Using Slab Decomposition



     bravais-lattice index     =            2
     lattice parameter (alat)  =      10.2847  a.u.
     unit-cell volume          =     271.9678 (a.u.)^3
     number of atoms/cell      =            2
     number of atomic types    =            2
     number of electrons       =        26.00
     number of Kohn-Sham states=           17
     kinetic-energy cutoff     =      60.0000  Ry
     charge density cutoff     =     240.0000  Ry
     Exchange-correlation= PBE
                           (   1   4   3   4   0   0   0)

     celldm(1)=  10.284720  celldm(2)=   0.000000  celldm(3)=   0.000000
     celldm(4)=   0.000000  celldm(5)=   0.000000  celldm(6)=   0.000000

     crystal axes: (cart. coord. in units of alat)
               a(1) = (  -0.500000   0.000000   0.500000 )  
               a(2) = (   0.000000   0.500000   0.500000 )  
               a(3) = (  -0.500000   0.500000   0.000000 )  

     reciprocal axes: (cart. coord. in units 2 pi/alat)
               b(1) = ( -1.000000 -1.000000  1.000000 )  
               b(2) = (  1.000000  1.000000  1.000000 )  
               b(3) = ( -1.000000  1.000000 -1.000000 )  


     PseudoPot. # 1 for Zn read from file:
     /home/paolo/project_labqsm/pseudopotentials/Zn_ONCV_PBE-1.2.upf
     MD5 check sum: 732f41c0cd6489a4b50a33b4ec99a2d3
     Pseudo is Norm-conserving, Zval = 20.0
     Generated using ONCVPSP code by D. R. Hamann
     Using radial grid of  602 points,  6 beta functions with: 
                l(1) =   0
                l(2) =   0
                l(3) =   1
                l(4) =   1
                l(5) =   2
                l(6) =   2

     PseudoPot. # 2 for S  read from file:
     /home/paolo/project_labqsm/pseudopotentials/S_ONCV_PBE-1.2.upf
     MD5 check sum: f9d020296ee6110346977bfd66d424f6
     Pseudo is Norm-conserving, Zval =  6.0
     Generated using ONCVPSP code by D. R. Hamann
     Using radial grid of  602 points,  4 beta functions with: 
                l(1) =   0
                l(2) =   0
                l(3) =   1
                l(4) =   1

     atomic species   valence    mass     pseudopotential
        Zn            20.00    65.38000     Zn( 1.00)
        S              6.00    32.06000     S ( 1.00)

     24 Sym. Ops. (no inversion) found


                                    s                        frac. trans.

      isym =  1     identity                                     

 cryst.   s( 1) = (     1          0          0      )
                  (     0          1          0      )
                  (     0          0          1      )

 cart.    s( 1) = (  1.0000000  0.0000000  0.0000000 )
                  (  0.0000000  1.0000000  0.0000000 )
                  (  0.0000000  0.0000000  1.0000000 )


      isym =  2     180 deg rotation - cart. axis [0,0,1]        

 cryst.   s( 2) = (     0          1         -1      )
                  (     1          0         -1      )
                  (     0          0         -1      )

 cart.    s( 2) = ( -1.0000000  0.0000000  0.0000000 )
                  (  0.0000000 -1.0000000  0.0000000 )
                  (  0.0000000  0.0000000  1.0000000 )


      isym =  3     180 deg rotation - cart. axis [0,1,0]        

 cryst.   s( 3) = (    -1          0          0      )
                  (    -1          0          1      )
                  (    -1          1          0      )

 cart.    s( 3) = ( -1.0000000  0.0000000  0.0000000 )
                  (  0.0000000  1.0000000  0.0000000 )
                  (  0.0000000  0.0000000 -1.0000000 )


      isym =  4     180 deg rotation - cart. axis [1,0,0]        

 cryst.   s( 4) = (     0         -1          1      )
                  (     0         -1          0      )
                  (     1         -1          0      )

 cart.    s( 4) = (  1.0000000  0.0000000  0.0000000 )
                  (  0.0000000 -1.0000000  0.0000000 )
                  (  0.0000000  0.0000000 -1.0000000 )


      isym =  5     120 deg rotation - cart. axis [-1,-1,-1]     

 cryst.   s( 5) = (    -1          0          1      )
                  (    -1          1          0      )
                  (    -1          0          0      )

 cart.    s( 5) = (  0.0000000  1.0000000  0.0000000 )
                  (  0.0000000  0.0000000  1.0000000 )
                  (  1.0000000  0.0000000  0.0000000 )


      isym =  6     120 deg rotation - cart. axis [-1,1,1]       

 cryst.   s( 6) = (     0          1          0      )
                  (     0          0          1      )
                  (     1          0          0      )

 cart.    s( 6) = (  0.0000000 -1.0000000  0.0000000 )
                  (  0.0000000  0.0000000  1.0000000 )
                  ( -1.0000000  0.0000000  0.0000000 )


      isym =  7     120 deg rotation - cart. axis [1,1,-1]       

 cryst.   s( 7) = (     1          0         -1      )
                  (     0          0         -1      )
                  (     0          1         -1      )

 cart.    s( 7) = (  0.0000000  1.0000000  0.0000000 )
                  (  0.0000000  0.0000000 -1.0000000 )
                  ( -1.0000000  0.0000000  0.0000000 )


      isym =  8     120 deg rotation - cart. axis [1,-1,1]       

 cryst.   s( 8) = (     0         -1          0      )
                  (     1         -1          0      )
                  (     0         -1          1      )

 cart.    s( 8) = (  0.0000000 -1.0000000  0.0000000 )
                  (  0.0000000  0.0000000 -1.0000000 )
                  (  1.0000000  0.0000000  0.0000000 )


      isym =  9     120 deg rotation - cart. axis [1,1,1]        

 cryst.   s( 9) = (     0          0         -1      )
                  (     0          1         -1      )
                  (     1          0         -1      )

 cart.    s( 9) = (  0.0000000  0.0000000  1.0000000 )
                  (  1.0000000  0.0000000  0.0000000 )
                  (  0.0000000  1.0000000  0.0000000 )


      isym = 10     120 deg rotation - cart. axis [-1,1,-1]      

 cryst.   s(10) = (    -1          1          0      )
                  (    -1          0          0      )
                  (    -1          0          1      )

 cart.    s(10) = (  0.0000000  0.0000000  1.0000000 )
                  ( -1.0000000  0.0000000  0.0000000 )
                  (  0.0000000 -1.0000000  0.0000000 )


      isym = 11     120 deg rotation - cart. axis [1,-1,-1]      

 cryst.   s(11) = (     0          0          1      )
                  (     1          0          0      )
                  (     0          1          0      )

 cart.    s(11) = (  0.0000000  0.0000000 -1.0000000 )
                  ( -1.0000000  0.0000000  0.0000000 )
                  (  0.0000000  1.0000000  0.0000000 )


      isym = 12     120 deg rotation - cart. axis [-1,-1,1]      

 cryst.   s(12) = (     1         -1          0      )
                  (     0         -1          1      )
                  (     0         -1          0      )

 cart.    s(12) = (  0.0000000  0.0000000 -1.0000000 )
                  (  1.0000000  0.0000000  0.0000000 )
                  (  0.0000000 -1.0000000  0.0000000 )


      isym = 13     inv. 180 deg rotation - cart. axis [1,1,0]   

 cryst.   s(13) = (     0          1          0      )
                  (     1          0          0      )
                  (     0          0          1      )

 cart.    s(13) = (  0.0000000 -1.0000000  0.0000000 )
                  ( -1.0000000  0.0000000  0.0000000 )
                  (  0.0000000  0.0000000  1.0000000 )


      isym = 14     inv. 180 deg rotation - cart. axis [1,-1,0]  

 cryst.   s(14) = (     1          0         -1      )
                  (     0          1         -1      )
                  (     0          0         -1      )

 cart.    s(14) = (  0.0000000  1.0000000  0.0000000 )
                  (  1.0000000  0.0000000  0.0000000 )
                  (  0.0000000  0.0000000  1.0000000 )


      isym = 15     inv.  90 deg rotation - cart. axis [0,0,-1]  

 cryst.   s(15) = (     0         -1          0      )
                  (     0         -1          1      )
                  (     1         -1          0      )

 cart.    s(15) = (  0.0000000 -1.0000000  0.0000000 )
                  (  1.0000000  0.0000000  0.0000000 )
                  (  0.0000000  0.0000000 -1.0000000 )


      isym = 16     inv.  90 deg rotation - cart. axis [0,0,1]   

 cryst.   s(16) = (    -1          0          1      )
                  (    -1          0          0      )
                  (    -1          1          0      )

 cart.    s(16) = (  0.0000000  1.0000000  0.0000000 )
                  ( -1.0000000  0.0000000  0.0000000 )
                  (  0.0000000  0.0000000 -1.0000000 )


      isym = 17     inv. 180 deg rotation - cart. axis [1,0,1]   

 cryst.   s(17) = (     1          0          0      )
                  (     0          0          1      )
                  (     0          1          0      )

 cart.    s(17) = (  0.0000000  0.0000000 -1.0000000 )
                  (  0.0000000  1.0000000  0.0000000 )
                  ( -1.0000000  0.0000000  0.0000000 )


      isym = 18     inv. 180 deg rotation - cart. axis [-1,0,1]  

 cryst.   s(18) = (    -1          0          0      )
                  (    -1          1          0      )
                  (    -1          0          1      )

 cart.    s(18) = (  0.0000000  0.0000000  1.0000000 )
                  (  0.0000000  1.0000000  0.0000000 )
                  (  1.0000000  0.0000000  0.0000000 )


      isym = 19     inv.  90 deg rotation - cart. axis [0,1,0]   

 cryst.   s(19) = (     0         -1          1      )
                  (     1         -1          0      )
                  (     0         -1          0      )

 cart.    s(19) = (  0.0000000  0.0000000 -1.0000000 )
                  (  0.0000000 -1.0000000  0.0000000 )
                  (  1.0000000  0.0000000  0.0000000 )


      isym = 20     inv.  90 deg rotation - cart. axis [0,-1,0]  

 cryst.   s(20) = (     0          1         -1      )
                  (     0          0         -1      )
                  (     1          0         -1      )

 cart.    s(20) = (  0.0000000  0.0000000  1.0000000 )
                  (  0.0000000 -1.0000000  0.0000000 )
                  ( -1.0000000  0.0000000  0.0000000 )


      isym = 21     inv. 180 deg rotation - cart. axis [0,1,1]   

 cryst.   s(21) = (     1         -1          0      )
                  (     0         -1          0      )
                  (     0         -1          1      )

 cart.    s(21) = (  1.0000000  0.0000000  0.0000000 )
                  (  0.0000000  0.0000000 -1.0000000 )
                  (  0.0000000 -1.0000000  0.0000000 )


      isym = 22     inv. 180 deg rotation - cart. axis [0,1,-1]  

 cryst.   s(22) = (     0          0          1      )
                  (     0          1          0      )
                  (     1          0          0      )

 cart.    s(22) = (  1.0000000  0.0000000  0.0000000 )
                  (  0.0000000  0.0000000  1.0000000 )
                  (  0.0000000  1.0000000  0.0000000 )


      isym = 23     inv.  90 deg rotation - cart. axis [-1,0,0]  

 cryst.   s(23) = (     0          0         -1      )
                  (     1          0         -1      )
                  (     0          1         -1      )

 cart.    s(23) = ( -1.0000000  0.0000000  0.0000000 )
                  (  0.0000000  0.0000000 -1.0000000 )
                  (  0.0000000  1.0000000  0.0000000 )


      isym = 24     inv.  90 deg rotation - cart. axis [1,0,0]   

 cryst.   s(24) = (    -1          1          0      )
                  (    -1          0          1      )
                  (    -1          0          0      )

 cart.    s(24) = ( -1.0000000  0.0000000  0.0000000 )
                  (  0.0000000  0.0000000  1.0000000 )
                  (  0.0000000 -1.0000000  0.0000000 )


     point group T_d (-43m) 
     there are  5 classes
     the character table:

       E     8C3   3C2   6S4   6s_d 
A_1    1.00  1.00  1.00  1.00  1.00
A_2    1.00  1.00  1.00 -1.00 -1.00
E      2.00 -1.00  2.00  0.00  0.00
T_1    3.00  0.00 -1.00  1.00 -1.00
T_2    3.00  0.00 -1.00 -1.00  1.00

     the symmetry operations in each class and the name of the first element:

     E        1
          identity                                               
     8C3      5    7    8    6   12    9   10   11
          120 deg rotation - cart. axis [-1,-1,-1]               
     3C2      2    3    4
          180 deg rotation - cart. axis [0,0,1]                  
     6S4     15   16   20   19   23   24
          inv.  90 deg rotation - cart. axis [0,0,-1]            
     6s_d    13   14   17   18   21   22
          inv. 180 deg rotation - cart. axis [1,1,0]             

   Cartesian axes

     site n.     atom                  positions (alat units)
         1           Zn  tau(   1) = (   0.0000000   0.0000000   0.0000000  )
         2           S   tau(   2) = (   0.2500000   0.2500000   0.2500000  )

   Crystallographic axes

     site n.     atom                  positions (cryst. coord.)
         1           Zn  tau(   1) = (  0.0000000  0.0000000  0.0000000  )
         2           S   tau(   2) = ( -0.2500000  0.7500000 -0.2500000  )

     number of k points=   201
                       cart. coord. in units 2pi/alat
        k(    1) = (   0.0000000   0.0000000   1.0000000), wk =   0.0099502
        k(    2) = (   0.0000000   0.0000000   0.9750000), wk =   0.0099502
        k(    3) = (   0.0000000   0.0000000   0.9500000), wk =   0.0099502
        k(    4) = (   0.0000000   0.0000000   0.9250000), wk =   0.0099502
        k(    5) = (   0.0000000   0.0000000   0.9000000), wk =   0.0099502
        k(    6) = (   0.0000000   0.0000000   0.8750000), wk =   0.0099502
        k(    7) = (   0.0000000   0.0000000   0.8500000), wk =   0.0099502
        k(    8) = (   0.0000000   0.0000000   0.8250000), wk =   0.0099502
        k(    9) = (   0.0000000   0.0000000   0.8000000), wk =   0.0099502
        k(   10) = (   0.0000000   0.0000000   0.7750000), wk =   0.0099502
        k(   11) = (   0.0000000   0.0000000   0.7500000), wk =   0.0099502
        k(   12) = (   0.0000000   0.0000000   0.7250000), wk =   0.0099502
        k(   13) = (   0.0000000   0.0000000   0.7000000), wk =   0.0099502
        k(   14) = (   0.0000000   0.0000000   0.6750000), wk =   0.0099502
        k(   15) = (   0.0000000   0.0000000   0.6500000), wk =   0.0099502
        k(   16) = (   0.0000000   0.0000000   0.6250000), wk =   0.0099502
        k(   17) = (   0.0000000   0.0000000   0.6000000), wk =   0.0099502
        k(   18) = (   0.0000000   0.0000000   0.5750000), wk =   0.0099502
        k(   19) = (   0.0000000   0.0000000   0.5500000), wk =   0.0099502
        k(   20) = (   0.0000000   0.0000000   0.5250000), wk =   0.0099502
        k(   21) = (   0.0000000   0.0000000   0.5000000), wk =   0.0099502
        k(   22) = (   0.0000000   0.0000000   0.4750000), wk =   0.0099502
        k(   23) = (   0.0000000   0.0000000   0.4500000), wk =   0.0099502
        k(   24) = (   0.0000000   0.0000000   0.4250000), wk =   0.0099502
        k(   25) = (   0.0000000   0.0000000   0.4000000), wk =   0.0099502
        k(   26) = (   0.0000000   0.0000000   0.3750000), wk =   0.0099502
        k(   27) = (   0.0000000   0.0000000   0.3500000), wk =   0.0099502
        k(   28) = (   0.0000000   0.0000000   0.3250000), wk =   0.0099502
        k(   29) = (   0.0000000   0.0000000   0.3000000), wk =   0.0099502
        k(   30) = (   0.0000000   0.0000000   0.2750000), wk =   0.0099502
        k(   31) = (   0.0000000   0.0000000   0.2500000), wk =   0.0099502
        k(   32) = (   0.0000000   0.0000000   0.2250000), wk =   0.0099502
        k(   33) = (   0.0000000   0.0000000   0.2000000), wk =   0.0099502
        k(   34) = (   0.0000000   0.0000000   0.1750000), wk =   0.0099502
        k(   35) = (   0.0000000   0.0000000   0.1500000), wk =   0.0099502
        k(   36) = (   0.0000000   0.0000000   0.1250000), wk =   0.0099502
        k(   37) = (   0.0000000   0.0000000   0.1000000), wk =   0.0099502
        k(   38) = (   0.0000000   0.0000000   0.0750000), wk =   0.0099502
        k(   39) = (   0.0000000   0.0000000   0.0500000), wk =   0.0099502
        k(   40) = (   0.0000000   0.0000000   0.0250000), wk =   0.0099502
        k(   41) = (   0.0000000   0.0000000   0.0000000), wk =   0.0099502
        k(   42) = (  -0.0125000   0.0125000   0.0125000), wk =   0.0099502
        k(   43) = (  -0.0250000   0.0250000   0.0250000), wk =   0.0099502
        k(   44) = (  -0.0375000   0.0375000   0.0375000), wk =   0.0099502
        k(   45) = (  -0.0500000   0.0500000   0.0500000), wk =   0.0099502
        k(   46) = (  -0.0625000   0.0625000   0.0625000), wk =   0.0099502
        k(   47) = (  -0.0750000   0.0750000   0.0750000), wk =   0.0099502
        k(   48) = (  -0.0875000   0.0875000   0.0875000), wk =   0.0099502
        k(   49) = (  -0.1000000   0.1000000   0.1000000), wk =   0.0099502
        k(   50) = (  -0.1125000   0.1125000   0.1125000), wk =   0.0099502
        k(   51) = (  -0.1250000   0.1250000   0.1250000), wk =   0.0099502
        k(   52) = (  -0.1375000   0.1375000   0.1375000), wk =   0.0099502
        k(   53) = (  -0.1500000   0.1500000   0.1500000), wk =   0.0099502
        k(   54) = (  -0.1625000   0.1625000   0.1625000), wk =   0.0099502
        k(   55) = (  -0.1750000   0.1750000   0.1750000), wk =   0.0099502
        k(   56) = (  -0.1875000   0.1875000   0.1875000), wk =   0.0099502
        k(   57) = (  -0.2000000   0.2000000   0.2000000), wk =   0.0099502
        k(   58) = (  -0.2125000   0.2125000   0.2125000), wk =   0.0099502
        k(   59) = (  -0.2250000   0.2250000   0.2250000), wk =   0.0099502
        k(   60) = (  -0.2375000   0.2375000   0.2375000), wk =   0.0099502
        k(   61) = (  -0.2500000   0.2500000   0.2500000), wk =   0.0099502
        k(   62) = (  -0.2625000   0.2625000   0.2625000), wk =   0.0099502
        k(   63) = (  -0.2750000   0.2750000   0.2750000), wk =   0.0099502
        k(   64) = (  -0.2875000   0.2875000   0.2875000), wk =   0.0099502
        k(   65) = (  -0.3000000   0.3000000   0.3000000), wk =   0.0099502
        k(   66) = (  -0.3125000   0.3125000   0.3125000), wk =   0.0099502
        k(   67) = (  -0.3250000   0.3250000   0.3250000), wk =   0.0099502
        k(   68) = (  -0.3375000   0.3375000   0.3375000), wk =   0.0099502
        k(   69) = (  -0.3500000   0.3500000   0.3500000), wk =   0.0099502
        k(   70) = (  -0.3625000   0.3625000   0.3625000), wk =   0.0099502
        k(   71) = (  -0.3750000   0.3750000   0.3750000), wk =   0.0099502
        k(   72) = (  -0.3875000   0.3875000   0.3875000), wk =   0.0099502
        k(   73) = (  -0.4000000   0.4000000   0.4000000), wk =   0.0099502
        k(   74) = (  -0.4125000   0.4125000   0.4125000), wk =   0.0099502
        k(   75) = (  -0.4250000   0.4250000   0.4250000), wk =   0.0099502
        k(   76) = (  -0.4375000   0.4375000   0.4375000), wk =   0.0099502
        k(   77) = (  -0.4500000   0.4500000   0.4500000), wk =   0.0099502
        k(   78) = (  -0.4625000   0.4625000   0.4625000), wk =   0.0099502
        k(   79) = (  -0.4750000   0.4750000   0.4750000), wk =   0.0099502
        k(   80) = (  -0.4875000   0.4875000   0.4875000), wk =   0.0099502
        k(   81) = (  -0.5000000   0.5000000   0.5000000), wk =   0.0099502
        k(   82) = (  -0.5000000   0.4875000   0.5125000), wk =   0.0099502
        k(   83) = (  -0.5000000   0.4750000   0.5250000), wk =   0.0099502
        k(   84) = (  -0.5000000   0.4625000   0.5375000), wk =   0.0099502
        k(   85) = (  -0.5000000   0.4500000   0.5500000), wk =   0.0099502
        k(   86) = (  -0.5000000   0.4375000   0.5625000), wk =   0.0099502
        k(   87) = (  -0.5000000   0.4250000   0.5750000), wk =   0.0099502
        k(   88) = (  -0.5000000   0.4125000   0.5875000), wk =   0.0099502
        k(   89) = (  -0.5000000   0.4000000   0.6000000), wk =   0.0099502
        k(   90) = (  -0.5000000   0.3875000   0.6125000), wk =   0.0099502
        k(   91) = (  -0.5000000   0.3750000   0.6250000), wk =   0.0099502
        k(   92) = (  -0.5000000   0.3625000   0.6375000), wk =   0.0099502
        k(   93) = (  -0.5000000   0.3500000   0.6500000), wk =   0.0099502
        k(   94) = (  -0.5000000   0.3375000   0.6625000), wk =   0.0099502
        k(   95) = (  -0.5000000   0.3250000   0.6750000), wk =   0.0099502
        k(   96) = (  -0.5000000   0.3125000   0.6875000), wk =   0.0099502
        k(   97) = (  -0.5000000   0.3000000   0.7000000), wk =   0.0099502
        k(   98) = (  -0.5000000   0.2875000   0.7125000), wk =   0.0099502
        k(   99) = (  -0.5000000   0.2750000   0.7250000), wk =   0.0099502
        k(  100) = (  -0.5000000   0.2625000   0.7375000), wk =   0.0099502
        k(  101) = (  -0.5000000   0.2500000   0.7500000), wk =   0.0099502
        k(  102) = (  -0.5000000   0.2375000   0.7625000), wk =   0.0099502
        k(  103) = (  -0.5000000   0.2250000   0.7750000), wk =   0.0099502
        k(  104) = (  -0.5000000   0.2125000   0.7875000), wk =   0.0099502
        k(  105) = (  -0.5000000   0.2000000   0.8000000), wk =   0.0099502
        k(  106) = (  -0.5000000   0.1875000   0.8125000), wk =   0.0099502
        k(  107) = (  -0.5000000   0.1750000   0.8250000), wk =   0.0099502
        k(  108) = (  -0.5000000   0.1625000   0.8375000), wk =   0.0099502
        k(  109) = (  -0.5000000   0.1500000   0.8500000), wk =   0.0099502
        k(  110) = (  -0.5000000   0.1375000   0.8625000), wk =   0.0099502
        k(  111) = (  -0.5000000   0.1250000   0.8750000), wk =   0.0099502
        k(  112) = (  -0.5000000   0.1125000   0.8875000), wk =   0.0099502
        k(  113) = (  -0.5000000   0.1000000   0.9000000), wk =   0.0099502
        k(  114) = (  -0.5000000   0.0875000   0.9125000), wk =   0.0099502
        k(  115) = (  -0.5000000   0.0750000   0.9250000), wk =   0.0099502
        k(  116) = (  -0.5000000   0.0625000   0.9375000), wk =   0.0099502
        k(  117) = (  -0.5000000   0.0500000   0.9500000), wk =   0.0099502
        k(  118) = (  -0.5000000   0.0375000   0.9625000), wk =   0.0099502
        k(  119) = (  -0.5000000   0.0250000   0.9750000), wk =   0.0099502
        k(  120) = (  -0.5000000   0.0125000   0.9875000), wk =   0.0099502
        k(  121) = (  -0.5000000   0.0000000   1.0000000), wk =   0.0099502
        k(  122) = (  -0.5062500   0.0000000   0.9937500), wk =   0.0099502
        k(  123) = (  -0.5125000   0.0000000   0.9875000), wk =   0.0099502
        k(  124) = (  -0.5187500   0.0000000   0.9812500), wk =   0.0099502
        k(  125) = (  -0.5250000   0.0000000   0.9750000), wk =   0.0099502
        k(  126) = (  -0.5312500   0.0000000   0.9687500), wk =   0.0099502
        k(  127) = (  -0.5375000   0.0000000   0.9625000), wk =   0.0099502
        k(  128) = (  -0.5437500   0.0000000   0.9562500), wk =   0.0099502
        k(  129) = (  -0.5500000   0.0000000   0.9500000), wk =   0.0099502
        k(  130) = (  -0.5562500   0.0000000   0.9437500), wk =   0.0099502
        k(  131) = (  -0.5625000   0.0000000   0.9375000), wk =   0.0099502
        k(  132) = (  -0.5687500   0.0000000   0.9312500), wk =   0.0099502
        k(  133) = (  -0.5750000   0.0000000   0.9250000), wk =   0.0099502
        k(  134) = (  -0.5812500   0.0000000   0.9187500), wk =   0.0099502
        k(  135) = (  -0.5875000   0.0000000   0.9125000), wk =   0.0099502
        k(  136) = (  -0.5937500   0.0000000   0.9062500), wk =   0.0099502
        k(  137) = (  -0.6000000   0.0000000   0.9000000), wk =   0.0099502
        k(  138) = (  -0.6062500   0.0000000   0.8937500), wk =   0.0099502
        k(  139) = (  -0.6125000   0.0000000   0.8875000), wk =   0.0099502
        k(  140) = (  -0.6187500   0.0000000   0.8812500), wk =   0.0099502
        k(  141) = (  -0.6250000   0.0000000   0.8750000), wk =   0.0099502
        k(  142) = (  -0.6312500   0.0000000   0.8687500), wk =   0.0099502
        k(  143) = (  -0.6375000   0.0000000   0.8625000), wk =   0.0099502
        k(  144) = (  -0.6437500   0.0000000   0.8562500), wk =   0.0099502
        k(  145) = (  -0.6500000   0.0000000   0.8500000), wk =   0.0099502
        k(  146) = (  -0.6562500   0.0000000   0.8437500), wk =   0.0099502
        k(  147) = (  -0.6625000   0.0000000   0.8375000), wk =   0.0099502
        k(  148) = (  -0.6687500   0.0000000   0.8312500), wk =   0.0099502
        k(  149) = (  -0.6750000   0.0000000   0.8250000), wk =   0.0099502
        k(  150) = (  -0.6812500   0.0000000   0.8187500), wk =   0.0099502
        k(  151) = (  -0.6875000   0.0000000   0.8125000), wk =   0.0099502
        k(  152) = (  -0.6937500   0.0000000   0.8062500), wk =   0.0099502
        k(  153) = (  -0.7000000   0.0000000   0.8000000), wk =   0.0099502
        k(  154) = (  -0.7062500   0.0000000   0.7937500), wk =   0.0099502
        k(  155) = (  -0.7125000   0.0000000   0.7875000), wk =   0.0099502
        k(  156) = (  -0.7187500   0.0000000   0.7812500), wk =   0.0099502
        k(  157) = (  -0.7250000   0.0000000   0.7750000), wk =   0.0099502
        k(  158) = (  -0.7312500   0.0000000   0.7687500), wk =   0.0099502
        k(  159) = (  -0.7375000   0.0000000   0.7625000), wk =   0.0099502
        k(  160) = (  -0.7437500   0.0000000   0.7562500), wk =   0.0099502
        k(  161) = (  -0.7500000   0.0000000   0.7500000), wk =   0.0099502
        k(  162) = (  -0.7312500   0.0000000   0.7312500), wk =   0.0099502
        k(  163) = (  -0.7125000   0.0000000   0.7125000), wk =   0.0099502
        k(  164) = (  -0.6937500   0.0000000   0.6937500), wk =   0.0099502
        k(  165) = (  -0.6750000   0.0000000   0.6750000), wk =   0.0099502
        k(  166) = (  -0.6562500   0.0000000   0.6562500), wk =   0.0099502
        k(  167) = (  -0.6375000   0.0000000   0.6375000), wk =   0.0099502
        k(  168) = (  -0.6187500   0.0000000   0.6187500), wk =   0.0099502
        k(  169) = (  -0.6000000   0.0000000   0.6000000), wk =   0.0099502
        k(  170) = (  -0.5812500   0.0000000   0.5812500), wk =   0.0099502
        k(  171) = (  -0.5625000   0.0000000   0.5625000), wk =   0.0099502
        k(  172) = (  -0.5437500   0.0000000   0.5437500), wk =   0.0099502
        k(  173) = (  -0.5250000   0.0000000   0.5250000), wk =   0.0099502
        k(  174) = (  -0.5062500   0.0000000   0.5062500), wk =   0.0099502
        k(  175) = (  -0.4875000   0.0000000   0.4875000), wk =   0.0099502
        k(  176) = (  -0.4687500   0.0000000   0.4687500), wk =   0.0099502
        k(  177) = (  -0.4500000   0.0000000   0.4500000), wk =   0.0099502
        k(  178) = (  -0.4312500   0.0000000   0.4312500), wk =   0.0099502
        k(  179) = (  -0.4125000   0.0000000   0.4125000), wk =   0.0099502
        k(  180) = (  -0.3937500   0.0000000   0.3937500), wk =   0.0099502
        k(  181) = (  -0.3750000   0.0000000   0.3750000), wk =   0.0099502
        k(  182) = (  -0.3562500   0.0000000   0.3562500), wk =   0.0099502
        k(  183) = (  -0.3375000   0.0000000   0.3375000), wk =   0.0099502
        k(  184) = (  -0.3187500   0.0000000   0.3187500), wk =   0.0099502
        k(  185) = (  -0.3000000   0.0000000   0.3000000), wk =   0.0099502
        k(  186) = (  -0.2812500   0.0000000   0.2812500), wk =   0.0099502
        k(  187) = (  -0.2625000   0.0000000   0.2625000), wk =   0.0099502
        k(  188) = (  -0.2437500   0.0000000   0.2437500), wk =   0.0099502
        k(  189) = (  -0.2250000   0.0000000   0.2250000), wk =   0.0099502
        k(  190) = (  -0.2062500   0.0000000   0.2062500), wk =   0.0099502
        k(  191) = (  -0.1875000   0.0000000   0.1875000), wk =   0.0099502
        k(  192) = (  -0.1687500   0.0000000   0.1687500), wk =   0.0099502
        k(  193) = (  -0.1500000   0.0000000   0.1500000), wk =   0.0099502
        k(  194) = (  -0.1312500   0.0000000   0.1312500), wk =   0.0099502
        k(  195) = (  -0.1125000   0.0000000   0.1125000), wk =   0.0099502
        k(  196) = (  -0.0937500   0.0000000   0.0937500), wk =   0.0099502
        k(  197) = (  -0.0750000   0.0000000   0.0750000), wk =   0.0099502
        k(  198) = (  -0.0562500   0.0000000   0.0562500), wk =   0.0099502
        k(  199) = (  -0.0375000   0.0000000   0.0375000), wk =   0.0099502
        k(  200) = (  -0.0187500   0.0000000   0.0187500), wk =   0.0099502
        k(  201) = (   0.0000000   0.0000000   0.0000000), wk =   0.0099502

                       cryst. coord.
        k(    1) = (   0.5000000   0.5000000   0.0000000), wk =   0.0099502
        k(    2) = (   0.4875000   0.4875000   0.0000000), wk =   0.0099502
        k(    3) = (   0.4750000   0.4750000   0.0000000), wk =   0.0099502
        k(    4) = (   0.4625000   0.4625000   0.0000000), wk =   0.0099502
        k(    5) = (   0.4500000   0.4500000   0.0000000), wk =   0.0099502
        k(    6) = (   0.4375000   0.4375000   0.0000000), wk =   0.0099502
        k(    7) = (   0.4250000   0.4250000   0.0000000), wk =   0.0099502
        k(    8) = (   0.4125000   0.4125000   0.0000000), wk =   0.0099502
        k(    9) = (   0.4000000   0.4000000   0.0000000), wk =   0.0099502
        k(   10) = (   0.3875000   0.3875000   0.0000000), wk =   0.0099502
        k(   11) = (   0.3750000   0.3750000   0.0000000), wk =   0.0099502
        k(   12) = (   0.3625000   0.3625000   0.0000000), wk =   0.0099502
        k(   13) = (   0.3500000   0.3500000   0.0000000), wk =   0.0099502
        k(   14) = (   0.3375000   0.3375000   0.0000000), wk =   0.0099502
        k(   15) = (   0.3250000   0.3250000   0.0000000), wk =   0.0099502
        k(   16) = (   0.3125000   0.3125000   0.0000000), wk =   0.0099502
        k(   17) = (   0.3000000   0.3000000   0.0000000), wk =   0.0099502
        k(   18) = (   0.2875000   0.2875000   0.0000000), wk =   0.0099502
        k(   19) = (   0.2750000   0.2750000   0.0000000), wk =   0.0099502
        k(   20) = (   0.2625000   0.2625000   0.0000000), wk =   0.0099502
        k(   21) = (   0.2500000   0.2500000   0.0000000), wk =   0.0099502
        k(   22) = (   0.2375000   0.2375000   0.0000000), wk =   0.0099502
        k(   23) = (   0.2250000   0.2250000   0.0000000), wk =   0.0099502
        k(   24) = (   0.2125000   0.2125000   0.0000000), wk =   0.0099502
        k(   25) = (   0.2000000   0.2000000   0.0000000), wk =   0.0099502
        k(   26) = (   0.1875000   0.1875000   0.0000000), wk =   0.0099502
        k(   27) = (   0.1750000   0.1750000   0.0000000), wk =   0.0099502
        k(   28) = (   0.1625000   0.1625000   0.0000000), wk =   0.0099502
        k(   29) = (   0.1500000   0.1500000   0.0000000), wk =   0.0099502
        k(   30) = (   0.1375000   0.1375000   0.0000000), wk =   0.0099502
        k(   31) = (   0.1250000   0.1250000   0.0000000), wk =   0.0099502
        k(   32) = (   0.1125000   0.1125000   0.0000000), wk =   0.0099502
        k(   33) = (   0.1000000   0.1000000   0.0000000), wk =   0.0099502
        k(   34) = (   0.0875000   0.0875000   0.0000000), wk =   0.0099502
        k(   35) = (   0.0750000   0.0750000   0.0000000), wk =   0.0099502
        k(   36) = (   0.0625000   0.0625000   0.0000000), wk =   0.0099502
        k(   37) = (   0.0500000   0.0500000   0.0000000), wk =   0.0099502
        k(   38) = (   0.0375000   0.0375000   0.0000000), wk =   0.0099502
        k(   39) = (   0.0250000   0.0250000   0.0000000), wk =   0.0099502
        k(   40) = (   0.0125000   0.0125000   0.0000000), wk =   0.0099502
        k(   41) = (   0.0000000   0.0000000   0.0000000), wk =   0.0099502
        k(   42) = (   0.0125000   0.0125000   0.0125000), wk =   0.0099502
        k(   43) = (   0.0250000   0.0250000   0.0250000), wk =   0.0099502
        k(   44) = (   0.0375000   0.0375000   0.0375000), wk =   0.0099502
        k(   45) = (   0.0500000   0.0500000   0.0500000), wk =   0.0099502
        k(   46) = (   0.0625000   0.0625000   0.0625000), wk =   0.0099502
        k(   47) = (   0.0750000   0.0750000   0.0750000), wk =   0.0099502
        k(   48) = (   0.0875000   0.0875000   0.0875000), wk =   0.0099502
        k(   49) = (   0.1000000   0.1000000   0.1000000), wk =   0.0099502
        k(   50) = (   0.1125000   0.1125000   0.1125000), wk =   0.0099502
        k(   51) = (   0.1250000   0.1250000   0.1250000), wk =   0.0099502
        k(   52) = (   0.1375000   0.1375000   0.1375000), wk =   0.0099502
        k(   53) = (   0.1500000   0.1500000   0.1500000), wk =   0.0099502
        k(   54) = (   0.1625000   0.1625000   0.1625000), wk =   0.0099502
        k(   55) = (   0.1750000   0.1750000   0.1750000), wk =   0.0099502
        k(   56) = (   0.1875000   0.1875000   0.1875000), wk =   0.0099502
        k(   57) = (   0.2000000   0.2000000   0.2000000), wk =   0.0099502
        k(   58) = (   0.2125000   0.2125000   0.2125000), wk =   0.0099502
        k(   59) = (   0.2250000   0.2250000   0.2250000), wk =   0.0099502
        k(   60) = (   0.2375000   0.2375000   0.2375000), wk =   0.0099502
        k(   61) = (   0.2500000   0.2500000   0.2500000), wk =   0.0099502
        k(   62) = (   0.2625000   0.2625000   0.2625000), wk =   0.0099502
        k(   63) = (   0.2750000   0.2750000   0.2750000), wk =   0.0099502
        k(   64) = (   0.2875000   0.2875000   0.2875000), wk =   0.0099502
        k(   65) = (   0.3000000   0.3000000   0.3000000), wk =   0.0099502
        k(   66) = (   0.3125000   0.3125000   0.3125000), wk =   0.0099502
        k(   67) = (   0.3250000   0.3250000   0.3250000), wk =   0.0099502
        k(   68) = (   0.3375000   0.3375000   0.3375000), wk =   0.0099502
        k(   69) = (   0.3500000   0.3500000   0.3500000), wk =   0.0099502
        k(   70) = (   0.3625000   0.3625000   0.3625000), wk =   0.0099502
        k(   71) = (   0.3750000   0.3750000   0.3750000), wk =   0.0099502
        k(   72) = (   0.3875000   0.3875000   0.3875000), wk =   0.0099502
        k(   73) = (   0.4000000   0.4000000   0.4000000), wk =   0.0099502
        k(   74) = (   0.4125000   0.4125000   0.4125000), wk =   0.0099502
        k(   75) = (   0.4250000   0.4250000   0.4250000), wk =   0.0099502
        k(   76) = (   0.4375000   0.4375000   0.4375000), wk =   0.0099502
        k(   77) = (   0.4500000   0.4500000   0.4500000), wk =   0.0099502
        k(   78) = (   0.4625000   0.4625000   0.4625000), wk =   0.0099502
        k(   79) = (   0.4750000   0.4750000   0.4750000), wk =   0.0099502
        k(   80) = (   0.4875000   0.4875000   0.4875000), wk =   0.0099502
        k(   81) = (   0.5000000   0.5000000   0.5000000), wk =   0.0099502
        k(   82) = (   0.5062500   0.5000000   0.4937500), wk =   0.0099502
        k(   83) = (   0.5125000   0.5000000   0.4875000), wk =   0.0099502
        k(   84) = (   0.5187500   0.5000000   0.4812500), wk =   0.0099502
        k(   85) = (   0.5250000   0.5000000   0.4750000), wk =   0.0099502
        k(   86) = (   0.5312500   0.5000000   0.4687500), wk =   0.0099502
        k(   87) = (   0.5375000   0.5000000   0.4625000), wk =   0.0099502
        k(   88) = (   0.5437500   0.5000000   0.4562500), wk =   0.0099502
        k(   89) = (   0.5500000   0.5000000   0.4500000), wk =   0.0099502
        k(   90) = (   0.5562500   0.5000000   0.4437500), wk =   0.0099502
        k(   91) = (   0.5625000   0.5000000   0.4375000), wk =   0.0099502
        k(   92) = (   0.5687500   0.5000000   0.4312500), wk =   0.0099502
        k(   93) = (   0.5750000   0.5000000   0.4250000), wk =   0.0099502
        k(   94) = (   0.5812500   0.5000000   0.4187500), wk =   0.0099502
        k(   95) = (   0.5875000   0.5000000   0.4125000), wk =   0.0099502
        k(   96) = (   0.5937500   0.5000000   0.4062500), wk =   0.0099502
        k(   97) = (   0.6000000   0.5000000   0.4000000), wk =   0.0099502
        k(   98) = (   0.6062500   0.5000000   0.3937500), wk =   0.0099502
        k(   99) = (   0.6125000   0.5000000   0.3875000), wk =   0.0099502
        k(  100) = (   0.6187500   0.5000000   0.3812500), wk =   0.0099502
        k(  101) = (   0.6250000   0.5000000   0.3750000), wk =   0.0099502
        k(  102) = (   0.6312500   0.5000000   0.3687500), wk =   0.0099502
        k(  103) = (   0.6375000   0.5000000   0.3625000), wk =   0.0099502
        k(  104) = (   0.6437500   0.5000000   0.3562500), wk =   0.0099502
        k(  105) = (   0.6500000   0.5000000   0.3500000), wk =   0.0099502
        k(  106) = (   0.6562500   0.5000000   0.3437500), wk =   0.0099502
        k(  107) = (   0.6625000   0.5000000   0.3375000), wk =   0.0099502
        k(  108) = (   0.6687500   0.5000000   0.3312500), wk =   0.0099502
        k(  109) = (   0.6750000   0.5000000   0.3250000), wk =   0.0099502
        k(  110) = (   0.6812500   0.5000000   0.3187500), wk =   0.0099502
        k(  111) = (   0.6875000   0.5000000   0.3125000), wk =   0.0099502
        k(  112) = (   0.6937500   0.5000000   0.3062500), wk =   0.0099502
        k(  113) = (   0.7000000   0.5000000   0.3000000), wk =   0.0099502
        k(  114) = (   0.7062500   0.5000000   0.2937500), wk =   0.0099502
        k(  115) = (   0.7125000   0.5000000   0.2875000), wk =   0.0099502
        k(  116) = (   0.7187500   0.5000000   0.2812500), wk =   0.0099502
        k(  117) = (   0.7250000   0.5000000   0.2750000), wk =   0.0099502
        k(  118) = (   0.7312500   0.5000000   0.2687500), wk =   0.0099502
        k(  119) = (   0.7375000   0.5000000   0.2625000), wk =   0.0099502
        k(  120) = (   0.7437500   0.5000000   0.2562500), wk =   0.0099502
        k(  121) = (   0.7500000   0.5000000   0.2500000), wk =   0.0099502
        k(  122) = (   0.7500000   0.4968750   0.2531250), wk =   0.0099502
        k(  123) = (   0.7500000   0.4937500   0.2562500), wk =   0.0099502
        k(  124) = (   0.7500000   0.4906250   0.2593750), wk =   0.0099502
        k(  125) = (   0.7500000   0.4875000   0.2625000), wk =   0.0099502
        k(  126) = (   0.7500000   0.4843750   0.2656250), wk =   0.0099502
        k(  127) = (   0.7500000   0.4812500   0.2687500), wk =   0.0099502
        k(  128) = (   0.7500000   0.4781250   0.2718750), wk =   0.0099502
        k(  129) = (   0.7500000   0.4750000   0.2750000), wk =   0.0099502
        k(  130) = (   0.7500000   0.4718750   0.2781250), wk =   0.0099502
        k(  131) = (   0.7500000   0.4687500   0.2812500), wk =   0.0099502
        k(  132) = (   0.7500000   0.4656250   0.2843750), wk =   0.0099502
        k(  133) = (   0.7500000   0.4625000   0.2875000), wk =   0.0099502
        k(  134) = (   0.7500000   0.4593750   0.2906250), wk =   0.0099502
        k(  135) = (   0.7500000   0.4562500   0.2937500), wk =   0.0099502
        k(  136) = (   0.7500000   0.4531250   0.2968750), wk =   0.0099502
        k(  137) = (   0.7500000   0.4500000   0.3000000), wk =   0.0099502
        k(  138) = (   0.7500000   0.4468750   0.3031250), wk =   0.0099502
        k(  139) = (   0.7500000   0.4437500   0.3062500), wk =   0.0099502
        k(  140) = (   0.7500000   0.4406250   0.3093750), wk =   0.0099502
        k(  141) = (   0.7500000   0.4375000   0.3125000), wk =   0.0099502
        k(  142) = (   0.7500000   0.4343750   0.3156250), wk =   0.0099502
        k(  143) = (   0.7500000   0.4312500   0.3187500), wk =   0.0099502
        k(  144) = (   0.7500000   0.4281250   0.3218750), wk =   0.0099502
        k(  145) = (   0.7500000   0.4250000   0.3250000), wk =   0.0099502
        k(  146) = (   0.7500000   0.4218750   0.3281250), wk =   0.0099502
        k(  147) = (   0.7500000   0.4187500   0.3312500), wk =   0.0099502
        k(  148) = (   0.7500000   0.4156250   0.3343750), wk =   0.0099502
        k(  149) = (   0.7500000   0.4125000   0.3375000), wk =   0.0099502
        k(  150) = (   0.7500000   0.4093750   0.3406250), wk =   0.0099502
        k(  151) = (   0.7500000   0.4062500   0.3437500), wk =   0.0099502
        k(  152) = (   0.7500000   0.4031250   0.3468750), wk =   0.0099502
        k(  153) = (   0.7500000   0.4000000   0.3500000), wk =   0.0099502
        k(  154) = (   0.7500000   0.3968750   0.3531250), wk =   0.0099502
        k(  155) = (   0.7500000   0.3937500   0.3562500), wk =   0.0099502
        k(  156) = (   0.7500000   0.3906250   0.3593750), wk =   0.0099502
        k(  157) = (   0.7500000   0.3875000   0.3625000), wk =   0.0099502
        k(  158) = (   0.7500000   0.3843750   0.3656250), wk =   0.0099502
        k(  159) = (   0.7500000   0.3812500   0.3687500), wk =   0.0099502
        k(  160) = (   0.7500000   0.3781250   0.3718750), wk =   0.0099502
        k(  161) = (   0.7500000   0.3750000   0.3750000), wk =   0.0099502
        k(  162) = (   0.7312500   0.3656250   0.3656250), wk =   0.0099502
        k(  163) = (   0.7125000   0.3562500   0.3562500), wk =   0.0099502
        k(  164) = (   0.6937500   0.3468750   0.3468750), wk =   0.0099502
        k(  165) = (   0.6750000   0.3375000   0.3375000), wk =   0.0099502
        k(  166) = (   0.6562500   0.3281250   0.3281250), wk =   0.0099502
        k(  167) = (   0.6375000   0.3187500   0.3187500), wk =   0.0099502
        k(  168) = (   0.6187500   0.3093750   0.3093750), wk =   0.0099502
        k(  169) = (   0.6000000   0.3000000   0.3000000), wk =   0.0099502
        k(  170) = (   0.5812500   0.2906250   0.2906250), wk =   0.0099502
        k(  171) = (   0.5625000   0.2812500   0.2812500), wk =   0.0099502
        k(  172) = (   0.5437500   0.2718750   0.2718750), wk =   0.0099502
        k(  173) = (   0.5250000   0.2625000   0.2625000), wk =   0.0099502
        k(  174) = (   0.5062500   0.2531250   0.2531250), wk =   0.0099502
        k(  175) = (   0.4875000   0.2437500   0.2437500), wk =   0.0099502
        k(  176) = (   0.4687500   0.2343750   0.2343750), wk =   0.0099502
        k(  177) = (   0.4500000   0.2250000   0.2250000), wk =   0.0099502
        k(  178) = (   0.4312500   0.2156250   0.2156250), wk =   0.0099502
        k(  179) = (   0.4125000   0.2062500   0.2062500), wk =   0.0099502
        k(  180) = (   0.3937500   0.1968750   0.1968750), wk =   0.0099502
        k(  181) = (   0.3750000   0.1875000   0.1875000), wk =   0.0099502
        k(  182) = (   0.3562500   0.1781250   0.1781250), wk =   0.0099502
        k(  183) = (   0.3375000   0.1687500   0.1687500), wk =   0.0099502
        k(  184) = (   0.3187500   0.1593750   0.1593750), wk =   0.0099502
        k(  185) = (   0.3000000   0.1500000   0.1500000), wk =   0.0099502
        k(  186) = (   0.2812500   0.1406250   0.1406250), wk =   0.0099502
        k(  187) = (   0.2625000   0.1312500   0.1312500), wk =   0.0099502
        k(  188) = (   0.2437500   0.1218750   0.1218750), wk =   0.0099502
        k(  189) = (   0.2250000   0.1125000   0.1125000), wk =   0.0099502
        k(  190) = (   0.2062500   0.1031250   0.1031250), wk =   0.0099502
        k(  191) = (   0.1875000   0.0937500   0.0937500), wk =   0.0099502
        k(  192) = (   0.1687500   0.0843750   0.0843750), wk =   0.0099502
        k(  193) = (   0.1500000   0.0750000   0.0750000), wk =   0.0099502
        k(  194) = (   0.1312500   0.0656250   0.0656250), wk =   0.0099502
        k(  195) = (   0.1125000   0.0562500   0.0562500), wk =   0.0099502
        k(  196) = (   0.0937500   0.0468750   0.0468750), wk =   0.0099502
        k(  197) = (   0.0750000   0.0375000   0.0375000), wk =   0.0099502
        k(  198) = (   0.0562500   0.0281250   0.0281250), wk =   0.0099502
        k(  199) = (   0.0375000   0.0187500   0.0187500), wk =   0.0099502
        k(  200) = (   0.0187500   0.0093750   0.0093750), wk =   0.0099502
        k(  201) = (   0.0000000   0.0000000   0.0000000), wk =   0.0099502

     Dense  grid:    16961 G-vectors     FFT dimensions: (  36,  36,  36)

     Dynamical RAM for                 wfc:       0.55 MB

     Dynamical RAM for     wfc (w. buffer):       0.55 MB

     Dynamical RAM for           str. fact:       0.52 MB

     Dynamical RAM for           local pot:       0.00 MB

     Dynamical RAM for          nlocal pot:       0.85 MB

     Dynamical RAM for                qrad:       2.49 MB

     Dynamical RAM for          rho,v,vnew:       1.84 MB

     Dynamical RAM for           G-vectors:       1.10 MB

     Dynamical RAM for          h,s,v(r/c):       0.05 MB

     Dynamical RAM for          <psi|beta>:       0.01 MB

     Dynamical RAM for                 psi:       1.11 MB

     Dynamical RAM for                hpsi:       1.11 MB

     Dynamical RAM for      wfcinit/wfcrot:       1.11 MB

     Estimated static dynamical RAM per process >       9.91 MB

     Estimated max dynamical RAM per process >      12.18 MB

     The potential is recalculated from file :
     ./SCRATCH/zns.save/charge-density

     Starting wfcs are random

     Band Structure Calculation
     Davidson diagonalization with overlap

     Computing kpt #:     1  of   201
     total cpu time spent up to now is        0.6 secs

     Computing kpt #:     2  of   201
     total cpu time spent up to now is        1.1 secs

     Computing kpt #:     3  of   201
     total cpu time spent up to now is        1.6 secs

     Computing kpt #:     4  of   201
     total cpu time spent up to now is        2.1 secs

     Computing kpt #:     5  of   201
     total cpu time spent up to now is        2.6 secs

     Computing kpt #:     6  of   201
     total cpu time spent up to now is        3.0 secs

     Computing kpt #:     7  of   201
     total cpu time spent up to now is        3.5 secs

     Computing kpt #:     8  of   201
     total cpu time spent up to now is        4.0 secs

     Computing kpt #:     9  of   201
     total cpu time spent up to now is        4.6 secs

     Computing kpt #:    10  of   201
     total cpu time spent up to now is        5.0 secs

     Computing kpt #:    11  of   201
     total cpu time spent up to now is        5.5 secs

     Computing kpt #:    12  of   201
     total cpu time spent up to now is        6.0 secs

     Computing kpt #:    13  of   201
     total cpu time spent up to now is        6.5 secs

     Computing kpt #:    14  of   201
     total cpu time spent up to now is        7.0 secs

     Computing kpt #:    15  of   201
     total cpu time spent up to now is        7.5 secs

     Computing kpt #:    16  of   201
     total cpu time spent up to now is        8.0 secs

     Computing kpt #:    17  of   201
     total cpu time spent up to now is        8.5 secs

     Computing kpt #:    18  of   201
     total cpu time spent up to now is        9.0 secs

     Computing kpt #:    19  of   201
     total cpu time spent up to now is        9.6 secs

     Computing kpt #:    20  of   201
     total cpu time spent up to now is       10.1 secs

     Computing kpt #:    21  of   201
     total cpu time spent up to now is       10.6 secs

     Computing kpt #:    22  of   201
     total cpu time spent up to now is       11.1 secs

     Computing kpt #:    23  of   201
     total cpu time spent up to now is       11.5 secs

     Computing kpt #:    24  of   201
     total cpu time spent up to now is       12.0 secs

     Computing kpt #:    25  of   201
     total cpu time spent up to now is       12.5 secs

     Computing kpt #:    26  of   201
     total cpu time spent up to now is       12.9 secs

     Computing kpt #:    27  of   201
     total cpu time spent up to now is       13.4 secs

     Computing kpt #:    28  of   201
     total cpu time spent up to now is       13.9 secs

     Computing kpt #:    29  of   201
     total cpu time spent up to now is       14.3 secs

     Computing kpt #:    30  of   201
     total cpu time spent up to now is       14.8 secs

     Computing kpt #:    31  of   201
     total cpu time spent up to now is       15.2 secs

     Computing kpt #:    32  of   201
     total cpu time spent up to now is       15.7 secs

     Computing kpt #:    33  of   201
     total cpu time spent up to now is       16.1 secs

     Computing kpt #:    34  of   201
     total cpu time spent up to now is       16.6 secs

     Computing kpt #:    35  of   201
     total cpu time spent up to now is       17.0 secs

     Computing kpt #:    36  of   201
     total cpu time spent up to now is       17.5 secs

     Computing kpt #:    37  of   201
     total cpu time spent up to now is       17.9 secs

     Computing kpt #:    38  of   201
     total cpu time spent up to now is       18.4 secs

     Computing kpt #:    39  of   201
     total cpu time spent up to now is       18.8 secs

     Computing kpt #:    40  of   201
     total cpu time spent up to now is       19.3 secs

     Computing kpt #:    41  of   201
     total cpu time spent up to now is       19.7 secs

     Computing kpt #:    42  of   201
     total cpu time spent up to now is       20.2 secs

     Computing kpt #:    43  of   201
     total cpu time spent up to now is       20.6 secs

     Computing kpt #:    44  of   201
     total cpu time spent up to now is       21.1 secs

     Computing kpt #:    45  of   201
     total cpu time spent up to now is       21.5 secs

     Computing kpt #:    46  of   201
     total cpu time spent up to now is       22.0 secs

     Computing kpt #:    47  of   201
     total cpu time spent up to now is       22.5 secs

     Computing kpt #:    48  of   201
     total cpu time spent up to now is       22.9 secs

     Computing kpt #:    49  of   201
     total cpu time spent up to now is       23.4 secs

     Computing kpt #:    50  of   201
     total cpu time spent up to now is       23.8 secs

     Computing kpt #:    51  of   201
     total cpu time spent up to now is       24.3 secs

     Computing kpt #:    52  of   201
     total cpu time spent up to now is       24.7 secs

     Computing kpt #:    53  of   201
     total cpu time spent up to now is       25.2 secs

     Computing kpt #:    54  of   201
     total cpu time spent up to now is       25.6 secs

     Computing kpt #:    55  of   201
     total cpu time spent up to now is       26.1 secs

     Computing kpt #:    56  of   201
     total cpu time spent up to now is       26.5 secs

     Computing kpt #:    57  of   201
     total cpu time spent up to now is       27.0 secs

     Computing kpt #:    58  of   201
     total cpu time spent up to now is       27.5 secs

     Computing kpt #:    59  of   201
     total cpu time spent up to now is       27.9 secs

     Computing kpt #:    60  of   201
     total cpu time spent up to now is       28.4 secs

     Computing kpt #:    61  of   201
     total cpu time spent up to now is       28.9 secs

     Computing kpt #:    62  of   201
     total cpu time spent up to now is       29.3 secs

     Computing kpt #:    63  of   201
     total cpu time spent up to now is       29.8 secs

     Computing kpt #:    64  of   201
     total cpu time spent up to now is       30.2 secs

     Computing kpt #:    65  of   201
     total cpu time spent up to now is       30.7 secs

     Computing kpt #:    66  of   201
     total cpu time spent up to now is       31.2 secs

     Computing kpt #:    67  of   201
     total cpu time spent up to now is       31.6 secs

     Computing kpt #:    68  of   201
     total cpu time spent up to now is       32.1 secs

     Computing kpt #:    69  of   201
     total cpu time spent up to now is       32.5 secs

     Computing kpt #:    70  of   201
     total cpu time spent up to now is       33.0 secs

     Computing kpt #:    71  of   201
     total cpu time spent up to now is       33.4 secs

     Computing kpt #:    72  of   201
     total cpu time spent up to now is       33.9 secs

     Computing kpt #:    73  of   201
     total cpu time spent up to now is       34.3 secs

     Computing kpt #:    74  of   201
     total cpu time spent up to now is       34.8 secs

     Computing kpt #:    75  of   201
     total cpu time spent up to now is       35.2 secs

     Computing kpt #:    76  of   201
     total cpu time spent up to now is       35.7 secs

     Computing kpt #:    77  of   201
     total cpu time spent up to now is       36.2 secs

     Computing kpt #:    78  of   201
     total cpu time spent up to now is       36.6 secs

     Computing kpt #:    79  of   201
     total cpu time spent up to now is       37.1 secs

     Computing kpt #:    80  of   201
     total cpu time spent up to now is       37.5 secs

     Computing kpt #:    81  of   201
     total cpu time spent up to now is       38.0 secs

     Computing kpt #:    82  of   201
     total cpu time spent up to now is       38.4 secs

     Computing kpt #:    83  of   201
     total cpu time spent up to now is       38.9 secs

     Computing kpt #:    84  of   201
     total cpu time spent up to now is       39.3 secs

     Computing kpt #:    85  of   201
     total cpu time spent up to now is       39.8 secs

     Computing kpt #:    86  of   201
     total cpu time spent up to now is       40.3 secs

     Computing kpt #:    87  of   201
     total cpu time spent up to now is       40.7 secs

     Computing kpt #:    88  of   201
     total cpu time spent up to now is       41.2 secs

     Computing kpt #:    89  of   201
     total cpu time spent up to now is       41.6 secs

     Computing kpt #:    90  of   201
     total cpu time spent up to now is       42.1 secs

     Computing kpt #:    91  of   201
     total cpu time spent up to now is       42.5 secs

     Computing kpt #:    92  of   201
     total cpu time spent up to now is       43.0 secs

     Computing kpt #:    93  of   201
     total cpu time spent up to now is       43.4 secs

     Computing kpt #:    94  of   201
     total cpu time spent up to now is       43.9 secs

     Computing kpt #:    95  of   201
     total cpu time spent up to now is       44.3 secs

     Computing kpt #:    96  of   201
     total cpu time spent up to now is       44.8 secs

     Computing kpt #:    97  of   201
     total cpu time spent up to now is       45.3 secs

     Computing kpt #:    98  of   201
     total cpu time spent up to now is       45.8 secs

     Computing kpt #:    99  of   201
     total cpu time spent up to now is       46.3 secs

     Computing kpt #:   100  of   201
     total cpu time spent up to now is       46.7 secs

     Computing kpt #:   101  of   201
     total cpu time spent up to now is       47.3 secs

     Computing kpt #:   102  of   201
     total cpu time spent up to now is       47.7 secs

     Computing kpt #:   103  of   201
     total cpu time spent up to now is       48.2 secs

     Computing kpt #:   104  of   201
     total cpu time spent up to now is       48.7 secs

     Computing kpt #:   105  of   201
     total cpu time spent up to now is       49.2 secs

     Computing kpt #:   106  of   201
     total cpu time spent up to now is       49.7 secs

     Computing kpt #:   107  of   201
     total cpu time spent up to now is       50.1 secs

     Computing kpt #:   108  of   201
     total cpu time spent up to now is       50.6 secs

     Computing kpt #:   109  of   201
     total cpu time spent up to now is       51.2 secs

     Computing kpt #:   110  of   201
     total cpu time spent up to now is       51.6 secs

     Computing kpt #:   111  of   201
     total cpu time spent up to now is       52.1 secs

     Computing kpt #:   112  of   201
     total cpu time spent up to now is       52.5 secs

     Computing kpt #:   113  of   201
     total cpu time spent up to now is       53.0 secs

     Computing kpt #:   114  of   201
     total cpu time spent up to now is       53.5 secs

     Computing kpt #:   115  of   201
     total cpu time spent up to now is       53.9 secs

     Computing kpt #:   116  of   201
     total cpu time spent up to now is       54.4 secs

     Computing kpt #:   117  of   201
     total cpu time spent up to now is       54.9 secs

     Computing kpt #:   118  of   201
     total cpu time spent up to now is       55.3 secs

     Computing kpt #:   119  of   201
     total cpu time spent up to now is       55.8 secs

     Computing kpt #:   120  of   201
     total cpu time spent up to now is       56.2 secs

     Computing kpt #:   121  of   201
     total cpu time spent up to now is       56.7 secs

     Computing kpt #:   122  of   201
     total cpu time spent up to now is       57.1 secs

     Computing kpt #:   123  of   201
     total cpu time spent up to now is       57.6 secs

     Computing kpt #:   124  of   201
     total cpu time spent up to now is       58.0 secs

     Computing kpt #:   125  of   201
     total cpu time spent up to now is       58.5 secs

     Computing kpt #:   126  of   201
     total cpu time spent up to now is       59.0 secs

     Computing kpt #:   127  of   201
     total cpu time spent up to now is       59.4 secs

     Computing kpt #:   128  of   201
     total cpu time spent up to now is       59.9 secs

     Computing kpt #:   129  of   201
     total cpu time spent up to now is       60.3 secs

     Computing kpt #:   130  of   201
     total cpu time spent up to now is       60.8 secs

     Computing kpt #:   131  of   201
     total cpu time spent up to now is       61.3 secs

     Computing kpt #:   132  of   201
     total cpu time spent up to now is       61.7 secs

     Computing kpt #:   133  of   201
     total cpu time spent up to now is       62.2 secs

     Computing kpt #:   134  of   201
     total cpu time spent up to now is       62.7 secs

     Computing kpt #:   135  of   201
     total cpu time spent up to now is       63.1 secs

     Computing kpt #:   136  of   201
     total cpu time spent up to now is       63.6 secs

     Computing kpt #:   137  of   201
     total cpu time spent up to now is       64.1 secs

     Computing kpt #:   138  of   201
     total cpu time spent up to now is       64.5 secs

     Computing kpt #:   139  of   201
     total cpu time spent up to now is       65.0 secs

     Computing kpt #:   140  of   201
     total cpu time spent up to now is       65.4 secs

     Computing kpt #:   141  of   201
     total cpu time spent up to now is       65.9 secs

     Computing kpt #:   142  of   201
     total cpu time spent up to now is       66.3 secs

     Computing kpt #:   143  of   201
     total cpu time spent up to now is       66.8 secs

     Computing kpt #:   144  of   201
     total cpu time spent up to now is       67.3 secs

     Computing kpt #:   145  of   201
     total cpu time spent up to now is       67.7 secs

     Computing kpt #:   146  of   201
     total cpu time spent up to now is       68.2 secs

     Computing kpt #:   147  of   201
     total cpu time spent up to now is       68.7 secs

     Computing kpt #:   148  of   201
     total cpu time spent up to now is       69.1 secs

     Computing kpt #:   149  of   201
     total cpu time spent up to now is       69.6 secs

     Computing kpt #:   150  of   201
     total cpu time spent up to now is       70.1 secs

     Computing kpt #:   151  of   201
     total cpu time spent up to now is       70.6 secs

     Computing kpt #:   152  of   201
     total cpu time spent up to now is       71.1 secs

     Computing kpt #:   153  of   201
     total cpu time spent up to now is       71.6 secs

     Computing kpt #:   154  of   201
     total cpu time spent up to now is       72.0 secs

     Computing kpt #:   155  of   201
     total cpu time spent up to now is       72.5 secs

     Computing kpt #:   156  of   201
     total cpu time spent up to now is       73.0 secs

     Computing kpt #:   157  of   201
     total cpu time spent up to now is       73.5 secs

     Computing kpt #:   158  of   201
     total cpu time spent up to now is       74.0 secs

     Computing kpt #:   159  of   201
     total cpu time spent up to now is       74.5 secs

     Computing kpt #:   160  of   201
     total cpu time spent up to now is       75.0 secs

     Computing kpt #:   161  of   201
     total cpu time spent up to now is       75.5 secs

     Computing kpt #:   162  of   201
     total cpu time spent up to now is       76.0 secs

     Computing kpt #:   163  of   201
     total cpu time spent up to now is       76.5 secs

     Computing kpt #:   164  of   201
     total cpu time spent up to now is       77.0 secs

     Computing kpt #:   165  of   201
     total cpu time spent up to now is       77.5 secs

     Computing kpt #:   166  of   201
     total cpu time spent up to now is       77.9 secs

     Computing kpt #:   167  of   201
     total cpu time spent up to now is       78.4 secs

     Computing kpt #:   168  of   201
     total cpu time spent up to now is       78.9 secs

     Computing kpt #:   169  of   201
     total cpu time spent up to now is       79.3 secs

     Computing kpt #:   170  of   201
     total cpu time spent up to now is       79.8 secs

     Computing kpt #:   171  of   201
     total cpu time spent up to now is       80.2 secs

     Computing kpt #:   172  of   201
     total cpu time spent up to now is       80.7 secs

     Computing kpt #:   173  of   201
     total cpu time spent up to now is       81.2 secs

     Computing kpt #:   174  of   201
     total cpu time spent up to now is       81.6 secs

     Computing kpt #:   175  of   201
     total cpu time spent up to now is       82.1 secs

     Computing kpt #:   176  of   201
     total cpu time spent up to now is       82.6 secs

     Computing kpt #:   177  of   201
     total cpu time spent up to now is       83.1 secs

     Computing kpt #:   178  of   201
     total cpu time spent up to now is       83.5 secs

     Computing kpt #:   179  of   201
     total cpu time spent up to now is       84.0 secs

     Computing kpt #:   180  of   201
     total cpu time spent up to now is       84.5 secs

     Computing kpt #:   181  of   201
     total cpu time spent up to now is       84.9 secs

     Computing kpt #:   182  of   201
     total cpu time spent up to now is       85.4 secs

     Computing kpt #:   183  of   201
     total cpu time spent up to now is       85.9 secs

     Computing kpt #:   184  of   201
     total cpu time spent up to now is       86.3 secs

     Computing kpt #:   185  of   201
     total cpu time spent up to now is       86.8 secs

     Computing kpt #:   186  of   201
     total cpu time spent up to now is       87.2 secs

     Computing kpt #:   187  of   201
     total cpu time spent up to now is       87.7 secs

     Computing kpt #:   188  of   201
     total cpu time spent up to now is       88.1 secs

     Computing kpt #:   189  of   201
     total cpu time spent up to now is       88.6 secs

     Computing kpt #:   190  of   201
     total cpu time spent up to now is       89.0 secs

     Computing kpt #:   191  of   201
     total cpu time spent up to now is       89.5 secs

     Computing kpt #:   192  of   201
     total cpu time spent up to now is       89.9 secs

     Computing kpt #:   193  of   201
     total cpu time spent up to now is       90.4 secs

     Computing kpt #:   194  of   201
     total cpu time spent up to now is       90.9 secs

     Computing kpt #:   195  of   201
     total cpu time spent up to now is       91.3 secs

     Computing kpt #:   196  of   201
     total cpu time spent up to now is       91.8 secs

     Computing kpt #:   197  of   201
     total cpu time spent up to now is       92.3 secs

     Computing kpt #:   198  of   201
     total cpu time spent up to now is       92.7 secs

     Computing kpt #:   199  of   201
     total cpu time spent up to now is       93.2 secs

     Computing kpt #:   200  of   201
     total cpu time spent up to now is       93.7 secs

     Computing kpt #:   201  of   201
     total cpu time spent up to now is       94.1 secs

     ethr =  3.85E-10,  avg # of iterations = 32.9

     total cpu time spent up to now is       94.1 secs

     End of band structure calculation

          k = 0.0000 0.0000 1.0000 (  2100 PWs)   bands (ev):

  -117.6816 -71.8365 -71.8364 -71.8364  -4.6039   0.9313   1.2650   1.2650
     1.4791   1.6220   2.7278   5.0617   5.0617  10.6761  11.3008  18.0259
    19.0378

          k = 0.0000 0.0000 0.9750 (  2124 PWs)   bands (ev):

  -117.6816 -71.8365 -71.8364 -71.8364  -4.6062   0.9308   1.2633   1.2633
     1.4787   1.6179   2.7358   5.0642   5.0642  10.6787  11.3032  18.0123
    19.0130

          k = 0.0000 0.0000 0.9500 (  2124 PWs)   bands (ev):

  -117.6816 -71.8365 -71.8364 -71.8364  -4.6127   0.9303   1.2612   1.2612
     1.4784   1.6083   2.7605   5.0725   5.0725  10.6878  11.3112  17.9728
    18.9436

          k = 0.0000 0.0000 0.9250 (  2128 PWs)   bands (ev):

  -117.6816 -71.8365 -71.8364 -71.8364  -4.6237   0.9293   1.2578   1.2578
     1.4778   1.5934   2.8003   5.0863   5.0863  10.7029  11.3245  17.9085
    18.8363

          k = 0.0000 0.0000 0.9000 (  2132 PWs)   bands (ev):

  -117.6816 -71.8365 -71.8364 -71.8364  -4.6388   0.9282   1.2529   1.2529
     1.4771   1.5745   2.8540   5.1055   5.1055  10.7239  11.3429  17.8220
    18.6995

          k = 0.0000 0.0000 0.8750 (  2132 PWs)   bands (ev):

  -117.6816 -71.8365 -71.8364 -71.8364  -4.6579   0.9269   1.2471   1.2471
     1.4761   1.5533   2.9199   5.1301   5.1301  10.7511  11.3663  17.7162
    18.5418

          k = 0.0000 0.0000 0.8500 (  2132 PWs)   bands (ev):

  -117.6816 -71.8365 -71.8364 -71.8364  -4.6810   0.9252   1.2406   1.2406
     1.4744   1.5307   2.9962   5.1599   5.1599  10.7839  11.3940  17.5943
    18.3694

          k = 0.0000 0.0000 0.8250 (  2136 PWs)   bands (ev):

  -117.6816 -71.8365 -71.8364 -71.8364  -4.7076   0.9233   1.2325   1.2325
     1.4727   1.5081   3.0816   5.1948   5.1948  10.8224  11.4258  17.4594
    18.1868

          k = 0.0000 0.0000 0.8000 (  2136 PWs)   bands (ev):

  -117.6816 -71.8365 -71.8364 -71.8364  -4.7377   0.9212   1.2235   1.2235
     1.4712   1.4866   3.1749   5.2345   5.2345  10.8669  11.4612  17.3149
    17.9979

          k = 0.0000 0.0000 0.7750 (  2136 PWs)   bands (ev):

  -117.6816 -71.8365 -71.8364 -71.8364  -4.7708   0.9188   1.2136   1.2136
     1.4665   1.4695   3.2751   5.2790   5.2790  10.9169  11.4995  17.1643
    17.8051

          k = 0.0000 0.0000 0.7500 (  2128 PWs)   bands (ev):

  -117.6816 -71.8364 -71.8364 -71.8364  -4.8068   0.9164   1.2033   1.2033
     1.4483   1.4682   3.3813   5.3281   5.3281  10.9724  11.5396  17.0106
    17.6100

          k = 0.0000 0.0000 0.7250 (  2128 PWs)   bands (ev):

  -117.6816 -71.8364 -71.8364 -71.8364  -4.8452   0.9139   1.1920   1.1920
     1.4321   1.4661   3.4928   5.3814   5.3814  11.0331  11.5803  16.8572
    17.4141

          k = 0.0000 0.0000 0.7000 (  2120 PWs)   bands (ev):

  -117.6816 -71.8364 -71.8364 -71.8364  -4.8858   0.9118   1.1803   1.1803
     1.4187   1.4640   3.6093   5.4389   5.4389  11.0991  11.6205  16.7072
    17.2184

          k = 0.0000 0.0000 0.6750 (  2129 PWs)   bands (ev):

  -117.6816 -71.8364 -71.8364 -71.8364  -4.9283   0.9092   1.1677   1.1677
     1.4067   1.4614   3.7295   5.5000   5.5000  11.1698  11.6578  16.5635
    17.0230

          k = 0.0000 0.0000 0.6500 (  2125 PWs)   bands (ev):

  -117.6816 -71.8364 -71.8364 -71.8364  -4.9723   0.9071   1.1552   1.1552
     1.3972   1.4590   3.8538   5.5649   5.5649  11.2454  11.6908  16.4300
    16.8298

          k = 0.0000 0.0000 0.6250 (  2125 PWs)   bands (ev):

  -117.6816 -71.8364 -71.8364 -71.8364  -5.0174   0.9051   1.1424   1.1424
     1.3894   1.4564   3.9813   5.6330   5.6330  11.3256  11.7169  16.3097
    16.6385

          k = 0.0000 0.0000 0.6000 (  2133 PWs)   bands (ev):

  -117.6816 -71.8364 -71.8364 -71.8364  -5.0634   0.9034   1.1293   1.1293
     1.3829   1.4538   4.1118   5.7041   5.7041  11.4099  11.7338  16.2058
    16.4495

          k = 0.0000 0.0000 0.5750 (  2121 PWs)   bands (ev):

  -117.6816 -71.8364 -71.8364 -71.8364  -5.1099   0.9024   1.1169   1.1169
     1.3786   1.4514   4.2453   5.7783   5.7783  11.4980  11.7396  16.1225
    16.2635

          k = 0.0000 0.0000 0.5500 (  2121 PWs)   bands (ev):

  -117.6816 -71.8364 -71.8364 -71.8364  -5.1566   0.9017   1.1039   1.1039
     1.3756   1.4487   4.3812   5.8546   5.8546  11.5876  11.7335  16.0622
    16.0806

          k = 0.0000 0.0000 0.5250 (  2137 PWs)   bands (ev):

  -117.6816 -71.8364 -71.8364 -71.8364  -5.2033   0.9010   1.0906   1.0906
     1.3736   1.4454   4.5191   5.9328   5.9328  11.6596  11.7323  15.9004
    15.9004

          k = 0.0000 0.0000 0.5000 (  2141 PWs)   bands (ev):

  -117.6816 -71.8364 -71.8364 -71.8364  -5.2496   0.9012   1.0780   1.0780
     1.3724   1.4426   4.6593   6.0128   6.0128  11.6439  11.8047  15.7247
    15.7247

          k = 0.0000 0.0000 0.4750 (  2129 PWs)   bands (ev):

  -117.6816 -71.8364 -71.8363 -71.8363  -5.2953   0.9020   1.0662   1.0662
     1.3730   1.4399   4.8017   6.0944   6.0944  11.5855  11.9052  15.5531
    15.5531

          k = 0.0000 0.0000 0.4500 (  2121 PWs)   bands (ev):

  -117.6816 -71.8364 -71.8363 -71.8363  -5.3401   0.9032   1.0545   1.0545
     1.3739   1.4375   4.9458   6.1768   6.1768  11.5056  12.0118  15.3859
    15.3859

          k = 0.0000 0.0000 0.4250 (  2121 PWs)   bands (ev):

  -117.6816 -71.8364 -71.8363 -71.8363  -5.3837   0.9047   1.0426   1.0426
     1.3754   1.4355   5.0915   6.2595   6.2595  11.4077  12.1220  15.2228
    15.2228

          k = 0.0000 0.0000 0.4000 (  2117 PWs)   bands (ev):

  -117.6816 -71.8364 -71.8363 -71.8363  -5.4260   0.9066   1.0314   1.0314
     1.3779   1.4328   5.2386   6.3423   6.3423  11.2938  12.2350  15.0653
    15.0653

          k = 0.0000 0.0000 0.3750 (  2125 PWs)   bands (ev):

  -117.6816 -71.8364 -71.8363 -71.8363  -5.4668   0.9086   1.0203   1.0203
     1.3802   1.4301   5.3867   6.4244   6.4244  11.1660  12.3501  14.9126
    14.9126

          k = 0.0000 0.0000 0.3500 (  2121 PWs)   bands (ev):

  -117.6816 -71.8364 -71.8363 -71.8363  -5.5058   0.9110   1.0105   1.0105
     1.3824   1.4276   5.5361   6.5059   6.5059  11.0267  12.4668  14.7665
    14.7665

          k = 0.0000 0.0000 0.3250 (  2121 PWs)   bands (ev):

  -117.6816 -71.8364 -71.8363 -71.8363  -5.5428   0.9136   1.0009   1.0009
     1.3851   1.4252   5.6862   6.5857   6.5857  10.8780  12.5844  14.6266
    14.6266

          k = 0.0000 0.0000 0.3000 (  2129 PWs)   bands (ev):

  -117.6816 -71.8363 -71.8363 -71.8363  -5.5778   0.9162   0.9915   0.9915
     1.3877   1.4228   5.8365   6.6632   6.6632  10.7223  12.7018  14.4930
    14.4930

          k = 0.0000 0.0000 0.2750 (  2125 PWs)   bands (ev):

  -117.6816 -71.8363 -71.8363 -71.8363  -5.6104   0.9192   0.9832   0.9832
     1.3905   1.4206   5.9871   6.7383   6.7383  10.5617  12.8187  14.3674
    14.3674

          k = 0.0000 0.0000 0.2500 (  2133 PWs)   bands (ev):

  -117.6816 -71.8363 -71.8363 -71.8363  -5.6407   0.9219   0.9752   0.9752
     1.3926   1.4186   6.1370   6.8098   6.8098  10.3983  12.9337  14.2498
    14.2498

          k = 0.0000 0.0000 0.2250 (  2133 PWs)   bands (ev):

  -117.6816 -71.8363 -71.8363 -71.8363  -5.6685   0.9246   0.9682   0.9682
     1.3952   1.4167   6.2855   6.8775   6.8775  10.2342  13.0456  14.1407
    14.1407

          k = 0.0000 0.0000 0.2000 (  2121 PWs)   bands (ev):

  -117.6816 -71.8363 -71.8363 -71.8363  -5.6936   0.9274   0.9623   0.9623
     1.3976   1.4152   6.4318   6.9408   6.9408  10.0716  13.1532  14.0409
    14.0409

          k = 0.0000 0.0000 0.1750 (  2121 PWs)   bands (ev):

  -117.6816 -71.8363 -71.8363 -71.8363  -5.7160   0.9298   0.9567   0.9567
     1.3998   1.4136   6.5742   6.9984   6.9984   9.9126  13.2546  13.9508
    13.9508

          k = 0.0000 0.0000 0.1500 (  2117 PWs)   bands (ev):

  -117.6816 -71.8363 -71.8363 -71.8363  -5.7356   0.9320   0.9519   0.9519
     1.4020   1.4123   6.7110   7.0501   7.0501   9.7601  13.3482  13.8712
    13.8712

          k = 0.0000 0.0000 0.1250 (  2101 PWs)   bands (ev):

  -117.6816 -71.8363 -71.8363 -71.8363  -5.7523   0.9339   0.9483   0.9483
     1.4048   1.4114   6.8394   7.0954   7.0954   9.6173  13.4322  13.8028
    13.8028

          k = 0.0000 0.0000 0.1000 (  2101 PWs)   bands (ev):

  -117.6816 -71.8363 -71.8363 -71.8363  -5.7660   0.9355   0.9448   0.9448
     1.4062   1.4104   6.9561   7.1330   7.1330   9.4883  13.5045  13.7458
    13.7458

          k = 0.0000 0.0000 0.0750 (  2105 PWs)   bands (ev):

  -117.6816 -71.8363 -71.8363 -71.8363  -5.7768   0.9368   0.9420   0.9420
     1.4072   1.4093   7.0563   7.1627   7.1627   9.3780  13.5633  13.7008
    13.7008

          k = 0.0000 0.0000 0.0500 (  2105 PWs)   bands (ev):

  -117.6816 -71.8363 -71.8363 -71.8363  -5.7845   0.9377   0.9401   0.9401
     1.4081   1.4087   7.1344   7.1844   7.1844   9.2925  13.6067  13.6684
    13.6684

          k = 0.0000 0.0000 0.0250 (  2109 PWs)   bands (ev):

  -117.6816 -71.8363 -71.8363 -71.8363  -5.7891   0.9383   0.9388   0.9388
     1.4081   1.4084   7.1845   7.1975   7.1975   9.2378  13.6333  13.6489
    13.6489

          k = 0.0000 0.0000 0.0000 (  2109 PWs)   bands (ev):

  -117.6816 -71.8363 -71.8363 -71.8363  -5.7906   0.9385   0.9385   0.9385
     1.4083   1.4083   7.2019   7.2019   7.2019   9.2189  13.6423  13.6423
    13.6423

          k =-0.0125 0.0125 0.0125 (  2109 PWs)   bands (ev):

  -117.6816 -71.8363 -71.8363 -71.8363  -5.7895   0.9385   0.9387   0.9387
     1.4083   1.4083   7.1853   7.2003   7.2003   9.2331  13.6398  13.6451
    13.6451

          k =-0.0250 0.0250 0.0250 (  2103 PWs)   bands (ev):

  -117.6816 -71.8363 -71.8363 -71.8363  -5.7860   0.9386   0.9394   0.9394
     1.4085   1.4085   7.1372   7.1958   7.1958   9.2741  13.6324  13.6535
    13.6535

          k =-0.0375 0.0375 0.0375 (  2103 PWs)   bands (ev):

  -117.6816 -71.8363 -71.8363 -71.8363  -5.7802   0.9386   0.9405   0.9405
     1.4084   1.4084   7.0612   7.1882   7.1882   9.3380  13.6207  13.6673
    13.6673

          k =-0.0500 0.0500 0.0500 (  2097 PWs)   bands (ev):

  -117.6816 -71.8363 -71.8363 -71.8363  -5.7722   0.9387   0.9421   0.9421
     1.4086   1.4086   6.9621   7.1777   7.1777   9.4198  13.6057  13.6864
    13.6864

          k =-0.0625 0.0625 0.0625 (  2100 PWs)   bands (ev):

  -117.6816 -71.8363 -71.8363 -71.8363  -5.7619   0.9387   0.9439   0.9439
     1.4084   1.4084   6.8446   7.1643   7.1643   9.5145  13.5886  13.7103
    13.7103

          k =-0.0750 0.0750 0.0750 (  2106 PWs)   bands (ev):

  -117.6816 -71.8363 -71.8363 -71.8363  -5.7493   0.9386   0.9461   0.9461
     1.4082   1.4082   6.7126   7.1482   7.1482   9.6174  13.5707  13.7388
    13.7388

          k =-0.0875 0.0875 0.0875 (  2106 PWs)   bands (ev):

  -117.6816 -71.8363 -71.8363 -71.8363  -5.7347   0.9390   0.9487   0.9487
     1.4080   1.4080   6.5701   7.1296   7.1296   9.7248  13.5541  13.7713
    13.7713

          k =-0.1000 0.1000 0.1000 (  2118 PWs)   bands (ev):

  -117.6816 -71.8363 -71.8363 -71.8363  -5.7179   0.9393   0.9515   0.9515
     1.4073   1.4073   6.4191   7.1086   7.1086   9.8334  13.5403  13.8074
    13.8074

          k =-0.1125 0.1125 0.1125 (  2118 PWs)   bands (ev):

  -117.6816 -71.8363 -71.8363 -71.8363  -5.6990   0.9401   0.9548   0.9548
     1.4071   1.4071   6.2623   7.0855   7.0855   9.9406  13.5311  13.8464
    13.8464

          k =-0.1250 0.1250 0.1250 (  2124 PWs)   bands (ev):

  -117.6816 -71.8363 -71.8363 -71.8363  -5.6782   0.9413   0.9583   0.9583
     1.4065   1.4065   6.1007   7.0604   7.0604  10.0442  13.5285  13.8877
    13.8877

          k =-0.1375 0.1375 0.1375 (  2118 PWs)   bands (ev):

  -117.6816 -71.8363 -71.8363 -71.8363  -5.6555   0.9436   0.9622   0.9622
     1.4065   1.4065   5.9363   7.0336   7.0336  10.1422  13.5349  13.9304
    13.9304

          k =-0.1500 0.1500 0.1500 (  2112 PWs)   bands (ev):

  -117.6816 -71.8363 -71.8363 -71.8363  -5.6310   0.9461   0.9664   0.9664
     1.4067   1.4067   5.7690   7.0054   7.0054  10.2331  13.5501  13.9739
    13.9739

          k =-0.1625 0.1625 0.1625 (  2112 PWs)   bands (ev):

  -117.6816 -71.8364 -71.8363 -71.8363  -5.6049   0.9487   0.9706   0.9706
     1.4067   1.4067   5.6001   6.9759   6.9759  10.3154  13.5763  14.0172
    14.0172

          k =-0.1750 0.1750 0.1750 (  2121 PWs)   bands (ev):

  -117.6816 -71.8364 -71.8363 -71.8363  -5.5771   0.9521   0.9748   0.9748
     1.4064   1.4064   5.4302   6.9451   6.9451  10.3883  13.6145  14.0594
    14.0594

          k =-0.1875 0.1875 0.1875 (  2127 PWs)   bands (ev):

  -117.6816 -71.8364 -71.8363 -71.8363  -5.5479   0.9560   0.9792   0.9792
     1.4065   1.4065   5.2598   6.9136   6.9136  10.4511  13.6653  14.0997
    14.0997

          k =-0.2000 0.2000 0.2000 (  2127 PWs)   bands (ev):

  -117.6816 -71.8364 -71.8363 -71.8363  -5.5174   0.9611   0.9839   0.9839
     1.4068   1.4068   5.0898   6.8815   6.8815  10.5036  13.7290  14.1375
    14.1375

          k =-0.2125 0.2125 0.2125 (  2127 PWs)   bands (ev):

  -117.6816 -71.8364 -71.8363 -71.8363  -5.4857   0.9674   0.9885   0.9885
     1.4073   1.4073   4.9204   6.8491   6.8491  10.5461  13.8053  14.1718
    14.1718

          k =-0.2250 0.2250 0.2250 (  2115 PWs)   bands (ev):

  -117.6816 -71.8364 -71.8363 -71.8363  -5.4530   0.9754   0.9934   0.9934
     1.4084   1.4084   4.7523   6.8165   6.8165  10.5790  13.8943  14.2023
    14.2023

          k =-0.2375 0.2375 0.2375 (  2121 PWs)   bands (ev):

  -117.6816 -71.8364 -71.8363 -71.8363  -5.4194   0.9841   0.9977   0.9977
     1.4090   1.4090   4.5854   6.7837   6.7837  10.6030  13.9935  14.2282
    14.2282

          k =-0.2500 0.2500 0.2500 (  2127 PWs)   bands (ev):

  -117.6816 -71.8364 -71.8363 -71.8363  -5.3853   0.9939   1.0022   1.0022
     1.4097   1.4097   4.4199   6.7513   6.7513  10.6190  14.1025  14.2493
    14.2493

          k =-0.2625 0.2625 0.2625 (  2124 PWs)   bands (ev):

  -117.6816 -71.8364 -71.8363 -71.8363  -5.3506   1.0055   1.0069   1.0069
     1.4109   1.4109   4.2566   6.7195   6.7195  10.6283  14.2198  14.2659
    14.2659

          k =-0.2750 0.2750 0.2750 (  2121 PWs)   bands (ev):

  -117.6816 -71.8364 -71.8363 -71.8363  -5.3157   1.0111   1.0111   1.0192
     1.4124   1.4124   4.0961   6.6880   6.6880  10.6318  14.2774  14.2774
    14.3440

          k =-0.2875 0.2875 0.2875 (  2127 PWs)   bands (ev):

  -117.6816 -71.8364 -71.8363 -71.8363  -5.2807   1.0151   1.0151   1.0345
     1.4135   1.4135   3.9381   6.6572   6.6572  10.6304  14.2843  14.2843
    14.4733

          k =-0.3000 0.3000 0.3000 (  2139 PWs)   bands (ev):

[...]
    15.4849

          k =-0.5188 0.0000 0.9813 (  2154 PWs)   bands (ev):

  -117.6816 -71.8364 -71.8364 -71.8364  -4.5990   1.0692   1.2047   1.3551
     1.3770   1.7867   2.7197   4.5159   4.6243  12.8994  13.1539  15.0457
    15.5032

          k =-0.5250 0.0000 0.9750 (  2158 PWs)   bands (ev):

  -117.6816 -71.8364 -71.8364 -71.8364  -4.5994   1.0688   1.2044   1.3531
     1.3788   1.7858   2.7197   4.4998   4.6461  12.8778  13.1524  15.0530
    15.5269

          k =-0.5312 0.0000 0.9688 (  2158 PWs)   bands (ev):

  -117.6816 -71.8364 -71.8364 -71.8364  -4.5999   1.0683   1.2040   1.3513
     1.3810   1.7847   2.7196   4.4841   4.6691  12.8495  13.1516  15.0644
    15.5550

          k =-0.5375 0.0000 0.9625 (  2158 PWs)   bands (ev):

  -117.6816 -71.8364 -71.8364 -71.8364  -4.6005   1.0677   1.2037   1.3495
     1.3833   1.7834   2.7195   4.4687   4.6932  12.8150  13.1513  15.0800
    15.5867

          k =-0.5437 0.0000 0.9562 (  2161 PWs)   bands (ev):

  -117.6816 -71.8364 -71.8364 -71.8364  -4.6011   1.0669   1.2032   1.3475
     1.3854   1.7820   2.7192   4.4536   4.7183  12.7749  13.1516  15.1000
    15.6215

          k =-0.5500 0.0000 0.9500 (  2159 PWs)   bands (ev):

  -117.6816 -71.8364 -71.8364 -71.8364  -4.6019   1.0661   1.2029   1.3457
     1.3879   1.7805   2.7188   4.4390   4.7445  12.7300  13.1523  15.1244
    15.6590

          k =-0.5563 0.0000 0.9438 (  2159 PWs)   bands (ev):

  -117.6816 -71.8364 -71.8364 -71.8364  -4.6027   1.0652   1.2025   1.3440
     1.3903   1.7789   2.7184   4.4246   4.7715  12.6809  13.1531  15.1529
    15.6986

          k =-0.5625 0.0000 0.9375 (  2159 PWs)   bands (ev):

  -117.6816 -71.8364 -71.8364 -71.8364  -4.6036   1.0642   1.2021   1.3423
     1.3928   1.7772   2.7178   4.4107   4.7993  12.6284  13.1539  15.1852
    15.7402

          k =-0.5687 0.0000 0.9312 (  2159 PWs)   bands (ev):

  -117.6816 -71.8364 -71.8364 -71.8364  -4.6045   1.0630   1.2017   1.3406
     1.3952   1.7754   2.7171   4.3971   4.8278  12.5732  13.1547  15.2212
    15.7834

          k =-0.5750 0.0000 0.9250 (  2159 PWs)   bands (ev):

  -117.6816 -71.8364 -71.8364 -71.8364  -4.6055   1.0617   1.2013   1.3390
     1.3977   1.7735   2.7163   4.3840   4.8569  12.5159  13.1554  15.2604
    15.8280

          k =-0.5813 0.0000 0.9188 (  2155 PWs)   bands (ev):

  -117.6816 -71.8364 -71.8364 -71.8364  -4.6065   1.0605   1.2011   1.3375
     1.4005   1.7717   2.7154   4.3712   4.8867  12.4570  13.1559  15.3026
    15.8740

          k =-0.5875 0.0000 0.9125 (  2155 PWs)   bands (ev):

  -117.6816 -71.8364 -71.8364 -71.8364  -4.6075   1.0591   1.2008   1.3359
     1.4029   1.7698   2.7144   4.3589   4.9167  12.3969  13.1561  15.3475
    15.9209

          k =-0.5938 0.0000 0.9062 (  2155 PWs)   bands (ev):

  -117.6816 -71.8364 -71.8364 -71.8364  -4.6086   1.0575   1.2006   1.3344
     1.4053   1.7679   2.7133   4.3469   4.9470  12.3362  13.1562  15.3947
    15.9686

          k =-0.6000 0.0000 0.9000 (  2149 PWs)   bands (ev):

  -117.6816 -71.8364 -71.8364 -71.8364  -4.6097   1.0562   1.2007   1.3331
     1.4078   1.7663   2.7122   4.3355   4.9776  12.2756  13.1560  15.4441
    16.0172

          k =-0.6062 0.0000 0.8937 (  2153 PWs)   bands (ev):

  -117.6816 -71.8364 -71.8364 -71.8364  -4.6107   1.0545   1.2003   1.3316
     1.4100   1.7642   2.7110   4.3244   5.0081  12.2146  13.1556  15.4953
    16.0662

          k =-0.6125 0.0000 0.8875 (  2145 PWs)   bands (ev):

  -117.6816 -71.8364 -71.8364 -71.8364  -4.6118   1.0530   1.2005   1.3303
     1.4127   1.7627   2.7097   4.3138   5.0388  12.1544  13.1551  15.5482
    16.1158

          k =-0.6188 0.0000 0.8813 (  2145 PWs)   bands (ev):

  -117.6816 -71.8364 -71.8364 -71.8364  -4.6129   1.0512   1.2005   1.3290
     1.4149   1.7608   2.7083   4.3036   5.0691  12.0947  13.1544  15.6025
    16.1655

          k =-0.6250 0.0000 0.8750 (  2145 PWs)   bands (ev):

  -117.6816 -71.8364 -71.8364 -71.8364  -4.6140   1.0494   1.2006   1.3277
     1.4171   1.7590   2.7070   4.2938   5.0992  12.0360  13.1535  15.6580
    16.2152

          k =-0.6312 0.0000 0.8687 (  2144 PWs)   bands (ev):

  -117.6816 -71.8364 -71.8364 -71.8364  -4.6150   1.0477   1.2008   1.3264
     1.4194   1.7573   2.7056   4.2845   5.1289  11.9786  13.1525  15.7146
    16.2649

          k =-0.6375 0.0000 0.8625 (  2144 PWs)   bands (ev):

  -117.6816 -71.8364 -71.8364 -71.8364  -4.6161   1.0459   1.2010   1.3253
     1.4213   1.7555   2.7042   4.2756   5.1581  11.9226  13.1515  15.7718
    16.3144

          k =-0.6438 0.0000 0.8563 (  2144 PWs)   bands (ev):

  -117.6816 -71.8364 -71.8364 -71.8364  -4.6171   1.0441   1.2013   1.3240
     1.4233   1.7539   2.7028   4.2672   5.1866  11.8684  13.1503  15.8295
    16.3636

          k =-0.6500 0.0000 0.8500 (  2150 PWs)   bands (ev):

  -117.6816 -71.8364 -71.8364 -71.8364  -4.6181   1.0422   1.2014   1.3226
     1.4250   1.7522   2.7013   4.2592   5.2143  11.8161  13.1490  15.8875
    16.4121

          k =-0.6562 0.0000 0.8438 (  2141 PWs)   bands (ev):

  -117.6816 -71.8364 -71.8364 -71.8364  -4.6190   1.0406   1.2020   1.3217
     1.4273   1.7509   2.7000   4.2517   5.2412  11.7661  13.1478  15.9460
    16.4602

          k =-0.6625 0.0000 0.8375 (  2141 PWs)   bands (ev):

  -117.6816 -71.8364 -71.8364 -71.8364  -4.6199   1.0390   1.2024   1.3207
     1.4291   1.7495   2.6986   4.2447   5.2670  11.7183  13.1466  16.0040
    16.5072

          k =-0.6687 0.0000 0.8312 (  2141 PWs)   bands (ev):

  -117.6816 -71.8364 -71.8364 -71.8364  -4.6208   1.0374   1.2028   1.3196
     1.4307   1.7482   2.6973   4.2382   5.2917  11.6729  13.1453  16.0615
    16.5533

          k =-0.6750 0.0000 0.8250 (  2141 PWs)   bands (ev):

  -117.6816 -71.8364 -71.8364 -71.8364  -4.6216   1.0358   1.2032   1.3186
     1.4322   1.7469   2.6961   4.2321   5.3151  11.6303  13.1441  16.1182
    16.5981

          k =-0.6813 0.0000 0.8188 (  2139 PWs)   bands (ev):

  -117.6816 -71.8364 -71.8364 -71.8364  -4.6223   1.0344   1.2037   1.3177
     1.4338   1.7458   2.6949   4.2265   5.3372  11.5904  13.1429  16.1738
    16.6415

          k =-0.6875 0.0000 0.8125 (  2143 PWs)   bands (ev):

  -117.6816 -71.8364 -71.8364 -71.8364  -4.6230   1.0330   1.2039   1.3168
     1.4349   1.7447   2.6937   4.2214   5.3576  11.5535  13.1417  16.2278
    16.6833

          k =-0.6937 0.0000 0.8062 (  2143 PWs)   bands (ev):

  -117.6816 -71.8364 -71.8364 -71.8364  -4.6237   1.0318   1.2042   1.3160
     1.4361   1.7438   2.6927   4.2167   5.3766  11.5196  13.1406  16.2797
    16.7234

          k =-0.7000 0.0000 0.8000 (  2151 PWs)   bands (ev):

  -117.6816 -71.8364 -71.8364 -71.8364  -4.6243   1.0304   1.2043   1.3150
     1.4370   1.7426   2.6918   4.2125   5.3938  11.4887  13.1395  16.3289
    16.7614

          k =-0.7063 0.0000 0.7938 (  2142 PWs)   bands (ev):

  -117.6816 -71.8364 -71.8364 -71.8364  -4.6248   1.0294   1.2052   1.3145
     1.4383   1.7420   2.6909   4.2089   5.4094  11.4615  13.1387  16.3753
    16.7977

          k =-0.7125 0.0000 0.7875 (  2141 PWs)   bands (ev):

  -117.6816 -71.8364 -71.8364 -71.8364  -4.6253   1.0286   1.2055   1.3139
     1.4392   1.7414   2.6902   4.2057   5.4229  11.4376  13.1379  16.4172
    16.8312

          k =-0.7188 0.0000 0.7812 (  2143 PWs)   bands (ev):

  -117.6816 -71.8364 -71.8364 -71.8364  -4.6256   1.0278   1.2055   1.3134
     1.4399   1.7408   2.6895   4.2030   5.4345  11.4173  13.1372  16.4544
    16.8616

          k =-0.7250 0.0000 0.7750 (  2143 PWs)   bands (ev):

  -117.6816 -71.8364 -71.8364 -71.8364  -4.6260   1.0271   1.2058   1.3130
     1.4405   1.7403   2.6890   4.2008   5.4441  11.4005  13.1366  16.4862
    16.8885

          k =-0.7312 0.0000 0.7687 (  2141 PWs)   bands (ev):

  -117.6816 -71.8364 -71.8364 -71.8364  -4.6262   1.0266   1.2060   1.3128
     1.4411   1.7400   2.6886   4.1991   5.4517  11.3874  13.1362  16.5117
    16.9111

          k =-0.7375 0.0000 0.7625 (  2141 PWs)   bands (ev):

  -117.6816 -71.8364 -71.8364 -71.8364  -4.6264   1.0263   1.2061   1.3125
     1.4414   1.7398   2.6883   4.1978   5.4571  11.3780  13.1359  16.5305
    16.9282

          k =-0.7438 0.0000 0.7563 (  2141 PWs)   bands (ev):

  -117.6816 -71.8364 -71.8364 -71.8364  -4.6265   1.0261   1.2062   1.3124
     1.4416   1.7396   2.6881   4.1971   5.4603  11.3723  13.1357  16.5419
    16.9390

          k =-0.7500 0.0000 0.7500 (  2141 PWs)   bands (ev):

  -117.6816 -71.8364 -71.8364 -71.8364  -4.6265   1.0260   1.2062   1.3123
     1.4417   1.7395   2.6881   4.1969   5.4614  11.3704  13.1356  16.5457
    16.9427

          k =-0.7312 0.0000 0.7312 (  2147 PWs)   bands (ev):

  -117.6816 -71.8364 -71.8364 -71.8364  -4.6349   1.0322   1.1981   1.3224
     1.4371   1.7381   2.6852   4.1626   5.5181  11.4345  13.3153  16.4288
    16.7692

          k =-0.7125 0.0000 0.7125 (  2143 PWs)   bands (ev):

  -117.6816 -71.8364 -71.8364 -71.8364  -4.6451   1.0377   1.1899   1.3329
     1.4330   1.7307   2.6870   4.1432   5.5773  11.5000  13.4711  16.3058
    16.6011

          k =-0.6937 0.0000 0.6937 (  2139 PWs)   bands (ev):

  -117.6816 -71.8364 -71.8364 -71.8364  -4.6573   1.0425   1.1814   1.3429
     1.4288   1.7162   2.6955   4.1387   5.6388  11.5663  13.5981  16.1717
    16.4386

          k =-0.6750 0.0000 0.6750 (  2125 PWs)   bands (ev):

  -117.6816 -71.8364 -71.8364 -71.8364  -4.6717   1.0467   1.1732   1.3520
     1.4254   1.6948   2.7124   4.1487   5.7024  11.6329  13.6941  16.0248
    16.2824

          k =-0.6562 0.0000 0.6562 (  2131 PWs)   bands (ev):

  -117.6816 -71.8364 -71.8364 -71.8364  -4.6885   1.0498   1.1639   1.3589
     1.4211   1.6666   2.7387   4.1723   5.7675  11.6985  13.7602  15.8653
    16.1316

          k =-0.6375 0.0000 0.6375 (  2139 PWs)   bands (ev):

  -117.6816 -71.8364 -71.8364 -71.8364  -4.7078   1.0524   1.1546   1.3628
     1.4169   1.6333   2.7750   4.2087   5.8339  11.7621  13.8001  15.6979
    15.9869

          k =-0.6188 0.0000 0.6188 (  2147 PWs)   bands (ev):

  -117.6816 -71.8364 -71.8364 -71.8364  -4.7296   1.0546   1.1452   1.3630
     1.4129   1.5976   2.8213   4.2569   5.9012  11.8222  13.8200  15.5253
    15.8483

          k =-0.6000 0.0000 0.6000 (  2149 PWs)   bands (ev):

  -117.6816 -71.8364 -71.8364 -71.8364  -4.7541   1.0563   1.1359   1.3584
     1.4092   1.5628   2.8773   4.3159   5.9694  11.8771  13.8265  15.3509
    15.7161

          k =-0.5813 0.0000 0.5813 (  2141 PWs)   bands (ev):

  -117.6816 -71.8364 -71.8364 -71.8364  -4.7811   1.0578   1.1267   1.3470
     1.4063   1.5323   2.9427   4.3849   6.0380  11.9245  13.8263  15.1770
    15.5903

          k =-0.5625 0.0000 0.5625 (  2141 PWs)   bands (ev):

  -117.6816 -71.8364 -71.8364 -71.8364  -4.8107   1.0586   1.1175   1.3270
     1.4032   1.5080   3.0165   4.4628   6.1066  11.9622  13.8252  15.0051
    15.4704

          k =-0.5437 0.0000 0.5437 (  2139 PWs)   bands (ev):

  -117.6816 -71.8364 -71.8364 -71.8364  -4.8429   1.0591   1.1082   1.2995
     1.4002   1.4912   3.0987   4.5489   6.1749  11.9881  13.8283  14.8371
    15.3563

          k =-0.5250 0.0000 0.5250 (  2133 PWs)   bands (ev):

  -117.6816 -71.8364 -71.8364 -71.8363  -4.8774   1.0592   1.0993   1.2671
     1.3979   1.4795   3.1887   4.6424   6.2426  12.0002  13.8393  14.6744
    15.2478

          k =-0.5062 0.0000 0.5062 (  2135 PWs)   bands (ev):

  -117.6816 -71.8364 -71.8364 -71.8363  -4.9142   1.0586   1.0902   1.2322
     1.3953   1.4714   3.2860   4.7424   6.3094  11.9973  13.8604  14.5181
    15.1442

          k =-0.4875 0.0000 0.4875 (  2129 PWs)   bands (ev):

  -117.6816 -71.8364 -71.8364 -71.8363  -4.9530   1.0576   1.0813   1.1975
     1.3935   1.4654   3.3906   4.8484   6.3751  11.9788  13.8922  14.3704
    15.0457

          k =-0.4688 0.0000 0.4688 (  2127 PWs)   bands (ev):

  -117.6816 -71.8364 -71.8364 -71.8363  -4.9936   1.0557   1.0728   1.1639
     1.3921   1.4602   3.5018   4.9594   6.4393  11.9452  13.9316  14.2342
    14.9518

          k =-0.4500 0.0000 0.4500 (  2127 PWs)   bands (ev):

  -117.6816 -71.8364 -71.8364 -71.8363  -5.0358   1.0530   1.0640   1.1326
     1.3907   1.4556   3.6198   5.0749   6.5016  11.8973  13.9632  14.1247
    14.8617

          k =-0.4312 0.0000 0.4313 (  2121 PWs)   bands (ev):

  -117.6816 -71.8364 -71.8364 -71.8363  -5.0793   1.0494   1.0556   1.1046
     1.3900   1.4512   3.7445   5.1940   6.5621  11.8367  13.9229  14.1043
    14.7753

          k =-0.4125 0.0000 0.4125 (  2133 PWs)   bands (ev):

  -117.6816 -71.8364 -71.8364 -71.8363  -5.1238   1.0439   1.0470   1.0797
     1.3887   1.4466   3.8752   5.3161   6.6201  11.7646  13.8258  14.1546
    14.6919

          k =-0.3937 0.0000 0.3937 (  2133 PWs)   bands (ev):

  -117.6816 -71.8364 -71.8364 -71.8363  -5.1690   1.0356   1.0387   1.0604
     1.3882   1.4426   4.0120   5.4404   6.6756  11.6827  13.7274  14.2194
    14.6115

          k =-0.3750 0.0000 0.3750 (  2125 PWs)   bands (ev):

  -117.6816 -71.8364 -71.8364 -71.8363  -5.2146   1.0229   1.0308   1.0481
     1.3886   1.4390   4.1550   5.5662   6.7286  11.5921  13.6371  14.2853
    14.5338

          k =-0.3562 0.0000 0.3562 (  2121 PWs)   bands (ev):

  -117.6816 -71.8364 -71.8364 -71.8363  -5.2602   1.0082   1.0229   1.0400
     1.3889   1.4354   4.3037   5.6928   6.7788  11.4938  13.5573  14.3468
    14.4583

          k =-0.3375 0.0000 0.3375 (  2129 PWs)   bands (ev):

  -117.6816 -71.8364 -71.8364 -71.8363  -5.3056   0.9937   1.0150   1.0329
     1.3890   1.4318   4.4576   5.8190   6.8259  11.3887  13.4885  14.3851
    14.3992

          k =-0.3187 0.0000 0.3187 (  2125 PWs)   bands (ev):

  -117.6816 -71.8364 -71.8363 -71.8363  -5.3504   0.9815   1.0076   1.0262
     1.3898   1.4287   4.6169   5.9444   6.8702  11.2775  13.4317  14.3143
    14.4392

          k =-0.3000 0.0000 0.3000 (  2129 PWs)   bands (ev):

  -117.6816 -71.8364 -71.8363 -71.8363  -5.3943   0.9710   1.0004   1.0192
     1.3903   1.4255   4.7811   6.0679   6.9115  11.1607  13.3865  14.2458
    14.4631

          k =-0.2812 0.0000 0.2812 (  2119 PWs)   bands (ev):

  -117.6816 -71.8364 -71.8363 -71.8363  -5.4370   0.9625   0.9935   1.0125
     1.3914   1.4237   4.9499   6.1889   6.9497  11.0388  13.3534  14.1797
    14.4686

          k =-0.2625 0.0000 0.2625 (  2123 PWs)   bands (ev):

  -117.6816 -71.8364 -71.8363 -71.8363  -5.4783   0.9553   0.9869   1.0051
     1.3925   1.4210   5.1226   6.3061   6.9848  10.9121  13.3316  14.1163
    14.4541

          k =-0.2437 0.0000 0.2437 (  2123 PWs)   bands (ev):

  -117.6816 -71.8364 -71.8363 -71.8363  -5.5179   0.9498   0.9806   0.9978
     1.3939   1.4189   5.2990   6.4190   7.0170  10.7809  13.3213  14.0558
    14.4201

          k =-0.2250 0.0000 0.2250 (  2127 PWs)   bands (ev):

  -117.6816 -71.8364 -71.8363 -71.8363  -5.5556   0.9453   0.9746   0.9905
     1.3953   1.4169   5.4782   6.5266   7.0463  10.6456  13.3214  13.9985
    14.3679

          k =-0.2062 0.0000 0.2062 (  2119 PWs)   bands (ev):

  -117.6816 -71.8364 -71.8363 -71.8363  -5.5910   0.9424   0.9693   0.9836
     1.3972   1.4155   5.6601   6.6284   7.0728  10.5064  13.3317  13.9447
    14.3012

          k =-0.1875 0.0000 0.1875 (  2123 PWs)   bands (ev):

  -117.6816 -71.8363 -71.8363 -71.8363  -5.6241   0.9397   0.9640   0.9768
     1.3984   1.4142   5.8429   6.7236   7.0964  10.3639  13.3506  13.8944
    14.2234

          k =-0.1687 0.0000 0.1687 (  2131 PWs)   bands (ev):

  -117.6816 -71.8363 -71.8363 -71.8363  -5.6546   0.9380   0.9592   0.9698
     1.3997   1.4127   6.0261   6.8111   7.1173  10.2187  13.3772  13.8481
    14.1390

          k =-0.1500 0.0000 0.1500 (  2123 PWs)   bands (ev):

  -117.6816 -71.8363 -71.8363 -71.8363  -5.6824   0.9373   0.9551   0.9636
     1.4017   1.4118   6.2083   6.8910   7.1359  10.0718  13.4103  13.8062
    14.0528

          k =-0.1312 0.0000 0.1312 (  2119 PWs)   bands (ev):

  -117.6816 -71.8363 -71.8363 -71.8363  -5.7072   0.9370   0.9515   0.9580
     1.4032   1.4110   6.3875   6.9624   7.1519   9.9246  13.4478  13.7686
    13.9683

          k =-0.1125 0.0000 0.1125 (  2107 PWs)   bands (ev):

  -117.6816 -71.8363 -71.8363 -71.8363  -5.7290   0.9376   0.9483   0.9530
     1.4049   1.4104   6.5613   7.0252   7.1656   9.7794  13.4876  13.7357
    13.8891

          k =-0.0938 0.0000 0.0938 (  2101 PWs)   bands (ev):

  -117.6816 -71.8363 -71.8363 -71.8363  -5.7476   0.9378   0.9454   0.9488
     1.4063   1.4100   6.7259   7.0788   7.1769   9.6392  13.5273  13.7075
    13.8178

          k =-0.0750 0.0000 0.0750 (  2103 PWs)   bands (ev):

  -117.6816 -71.8363 -71.8363 -71.8363  -5.7630   0.9379   0.9429   0.9453
     1.4072   1.4092   6.8767   7.1230   7.1860   9.5083  13.5643  13.6842
    13.7567

          k =-0.0562 0.0000 0.0562 (  2101 PWs)   bands (ev):

  -117.6816 -71.8363 -71.8363 -71.8363  -5.7750   0.9381   0.9410   0.9425
     1.4080   1.4090   7.0078   7.1575   7.1930   9.3928  13.5964  13.6660
    13.7076

          k =-0.0375 0.0000 0.0375 (  2103 PWs)   bands (ev):

  -117.6816 -71.8363 -71.8363 -71.8363  -5.7837   0.9383   0.9396   0.9403
     1.4084   1.4086   7.1114   7.1821   7.1980   9.3005  13.6213  13.6529
    13.6716

          k =-0.0187 0.0000 0.0187 (  2109 PWs)   bands (ev):

  -117.6816 -71.8363 -71.8363 -71.8363  -5.7889   0.9384   0.9387   0.9389
     1.4082   1.4083   7.1785   7.1969   7.2009   9.2401  13.6369  13.6449
    13.6497

          k = 0.0000 0.0000 0.0000 (  2109 PWs)   bands (ev):

  -117.6816 -71.8363 -71.8363 -71.8363  -5.7906   0.9385   0.9385   0.9385
     1.4083   1.4083   7.2019   7.2019   7.2019   9.2189  13.6423  13.6423
    13.6423

     Writing all to output data dir ./SCRATCH/zns.save/

     init_run     :      0.08s CPU      0.09s WALL (       1 calls)
     electrons    :     92.11s CPU     93.97s WALL (       1 calls)

     Called by init_run:
     wfcinit      :      0.00s CPU      0.00s WALL (       1 calls)
     wfcinit:wfcr :      2.84s CPU      3.02s WALL (     201 calls)
     potinit      :      0.02s CPU      0.02s WALL (       1 calls)
     hinit0       :      0.02s CPU      0.03s WALL (       1 calls)

     Called by electrons:
     c_bands      :     92.11s CPU     93.97s WALL (       1 calls)
     v_of_rho     :      0.02s CPU      0.02s WALL (       1 calls)
     v_h          :      0.00s CPU      0.00s WALL (       1 calls)
     v_xc         :      0.02s CPU      0.02s WALL (       1 calls)

     Called by c_bands:
     init_us_2    :      0.09s CPU      0.09s WALL (     201 calls)
     init_us_2:cp :      0.09s CPU      0.09s WALL (     201 calls)
     cegterg      :     88.70s CPU     90.24s WALL (     421 calls)

     Called by sum_band:

     Called by *egterg:
     cdiaghg      :      1.80s CPU      1.86s WALL (    6812 calls)
     cegterg:over :     11.16s CPU     10.82s WALL (    6611 calls)
     cegterg:upda :      4.66s CPU      4.64s WALL (    6611 calls)
     cegterg:last :      8.83s CPU      8.93s WALL (    5143 calls)
     h_psi        :     63.42s CPU     64.82s WALL (    7233 calls)
     g_psi        :      0.34s CPU      0.46s WALL (    6611 calls)

     Called by h_psi:
     h_psi:calbec :      4.92s CPU      5.09s WALL (    7233 calls)
     vloc_psi     :     54.77s CPU     55.20s WALL (    7233 calls)
     add_vuspsi   :      3.42s CPU      3.72s WALL (    7233 calls)

     General routines
     calbec       :      4.91s CPU      5.06s WALL (    7233 calls)
     fft          :      0.00s CPU      0.00s WALL (      10 calls)
     fftw         :     49.17s CPU     49.55s WALL (  176138 calls)
     davcio       :      0.00s CPU      0.06s WALL (     402 calls)


     PWSCF        :   1m32.27s CPU   1m34.26s WALL


   This run was terminated on:  21:24:18   8Jun2024            

=------------------------------------------------------------------------------=
   JOB DONE.
=------------------------------------------------------------------------------=
