
     Program PWSCF v.7.2 starts on 30May2024 at 17:54:31 

     This program is part of the open-source Quantum ESPRESSO suite
     for quantum simulation of materials; please cite
         "P. Giannozzi et al., J. Phys.:Condens. Matter 21 395502 (2009);
         "P. Giannozzi et al., J. Phys.:Condens. Matter 29 465901 (2017);
         "P. Giannozzi et al., J. Chem. Phys. 152 154105 (2020);
          URL http://www.quantum-espresso.org", 
     in publications or presentations arising from this work. More details at
     http://www.quantum-espresso.org/quote

     Serial version
     8968 MiB available memory on the printing compute node when the environment starts

     Waiting for input...
     Reading input from standard input

     Current dimensions of program PWSCF are:
     Max number of different atomic species (ntypx) = 10
     Max number of k-points (npk) =  40000
     Max angular momentum in pseudopotentials (lmaxx) =  4

     Atomic positions and unit cell read from directory:
     ./SCRATCH/zns.save/



     G-vector sticks info
     --------------------
     sticks:   dense  smooth     PW     G-vecs:    dense   smooth      PW
     Sum         745     745    223                13323    13323    2133

     Using Slab Decomposition



     bravais-lattice index     =            2
     lattice parameter (alat)  =       9.4519  a.u.
     unit-cell volume          =     211.1021 (a.u.)^3
     number of atoms/cell      =            2
     number of atomic types    =            2
     number of electrons       =         8.00
     number of Kohn-Sham states=           10
     kinetic-energy cutoff     =      60.0000  Ry
     charge density cutoff     =     240.0000  Ry
     Exchange-correlation= SLA-PZ-NOGX-NOGC
                           (   1   1   0   0   0   0   0)

     celldm(1)=   9.451865  celldm(2)=   0.000000  celldm(3)=   0.000000
     celldm(4)=   0.000000  celldm(5)=   0.000000  celldm(6)=   0.000000

     crystal axes: (cart. coord. in units of alat)
               a(1) = (  -0.500000   0.000000   0.500000 )  
               a(2) = (   0.000000   0.500000   0.500000 )  
               a(3) = (  -0.500000   0.500000   0.000000 )  

     reciprocal axes: (cart. coord. in units 2 pi/alat)
               b(1) = ( -1.000000 -1.000000  1.000000 )  
               b(2) = (  1.000000  1.000000  1.000000 )  
               b(3) = ( -1.000000  1.000000 -1.000000 )  


     PseudoPot. # 1 for Zn read from file:
     /home/paolo/project_labqsm/pseudopotentials/Zn.pz-hgh.UPF
     MD5 check sum: c1979979258da2eeca1fc2dcb474678d
     Pseudo is Norm-conserving, Zval =  2.0
     Generated in analytical, separable form
     Using radial grid of 1201 points,  6 beta functions with: 
                l(1) =   0
                l(2) =   0
                l(3) =   0
                l(4) =   1
                l(5) =   1
                l(6) =   2

     PseudoPot. # 2 for S  read from file:
     /home/paolo/project_labqsm/pseudopotentials/S.pz-hgh.UPF
     MD5 check sum: a0679cb0a74c01c481c24d5fd31ffa9b
     Pseudo is Norm-conserving, Zval =  6.0
     Generated in analytical, separable form
     Using radial grid of 1151 points,  3 beta functions with: 
                l(1) =   0
                l(2) =   0
                l(3) =   1

     atomic species   valence    mass     pseudopotential
        Zn             2.00    65.38000     Zn( 1.00)
        S              6.00    32.06000     S ( 1.00)

     24 Sym. Ops. (no inversion) found


                                    s                        frac. trans.

      isym =  1     identity                                     

 cryst.   s( 1) = (     1          0          0      )
                  (     0          1          0      )
                  (     0          0          1      )

 cart.    s( 1) = (  1.0000000  0.0000000  0.0000000 )
                  (  0.0000000  1.0000000  0.0000000 )
                  (  0.0000000  0.0000000  1.0000000 )


      isym =  2     180 deg rotation - cart. axis [0,0,1]        

 cryst.   s( 2) = (     0          1         -1      )
                  (     1          0         -1      )
                  (     0          0         -1      )

 cart.    s( 2) = ( -1.0000000  0.0000000  0.0000000 )
                  (  0.0000000 -1.0000000  0.0000000 )
                  (  0.0000000  0.0000000  1.0000000 )


      isym =  3     180 deg rotation - cart. axis [0,1,0]        

 cryst.   s( 3) = (    -1          0          0      )
                  (    -1          0          1      )
                  (    -1          1          0      )

 cart.    s( 3) = ( -1.0000000  0.0000000  0.0000000 )
                  (  0.0000000  1.0000000  0.0000000 )
                  (  0.0000000  0.0000000 -1.0000000 )


      isym =  4     180 deg rotation - cart. axis [1,0,0]        

 cryst.   s( 4) = (     0         -1          1      )
                  (     0         -1          0      )
                  (     1         -1          0      )

 cart.    s( 4) = (  1.0000000  0.0000000  0.0000000 )
                  (  0.0000000 -1.0000000  0.0000000 )
                  (  0.0000000  0.0000000 -1.0000000 )


      isym =  5     120 deg rotation - cart. axis [-1,-1,-1]     

 cryst.   s( 5) = (    -1          0          1      )
                  (    -1          1          0      )
                  (    -1          0          0      )

 cart.    s( 5) = (  0.0000000  1.0000000  0.0000000 )
                  (  0.0000000  0.0000000  1.0000000 )
                  (  1.0000000  0.0000000  0.0000000 )


      isym =  6     120 deg rotation - cart. axis [-1,1,1]       

 cryst.   s( 6) = (     0          1          0      )
                  (     0          0          1      )
                  (     1          0          0      )

 cart.    s( 6) = (  0.0000000 -1.0000000  0.0000000 )
                  (  0.0000000  0.0000000  1.0000000 )
                  ( -1.0000000  0.0000000  0.0000000 )


      isym =  7     120 deg rotation - cart. axis [1,1,-1]       

 cryst.   s( 7) = (     1          0         -1      )
                  (     0          0         -1      )
                  (     0          1         -1      )

 cart.    s( 7) = (  0.0000000  1.0000000  0.0000000 )
                  (  0.0000000  0.0000000 -1.0000000 )
                  ( -1.0000000  0.0000000  0.0000000 )


      isym =  8     120 deg rotation - cart. axis [1,-1,1]       

 cryst.   s( 8) = (     0         -1          0      )
                  (     1         -1          0      )
                  (     0         -1          1      )

 cart.    s( 8) = (  0.0000000 -1.0000000  0.0000000 )
                  (  0.0000000  0.0000000 -1.0000000 )
                  (  1.0000000  0.0000000  0.0000000 )


      isym =  9     120 deg rotation - cart. axis [1,1,1]        

 cryst.   s( 9) = (     0          0         -1      )
                  (     0          1         -1      )
                  (     1          0         -1      )

 cart.    s( 9) = (  0.0000000  0.0000000  1.0000000 )
                  (  1.0000000  0.0000000  0.0000000 )
                  (  0.0000000  1.0000000  0.0000000 )


      isym = 10     120 deg rotation - cart. axis [-1,1,-1]      

 cryst.   s(10) = (    -1          1          0      )
                  (    -1          0          0      )
                  (    -1          0          1      )

 cart.    s(10) = (  0.0000000  0.0000000  1.0000000 )
                  ( -1.0000000  0.0000000  0.0000000 )
                  (  0.0000000 -1.0000000  0.0000000 )


      isym = 11     120 deg rotation - cart. axis [1,-1,-1]      

 cryst.   s(11) = (     0          0          1      )
                  (     1          0          0      )
                  (     0          1          0      )

 cart.    s(11) = (  0.0000000  0.0000000 -1.0000000 )
                  ( -1.0000000  0.0000000  0.0000000 )
                  (  0.0000000  1.0000000  0.0000000 )


      isym = 12     120 deg rotation - cart. axis [-1,-1,1]      

 cryst.   s(12) = (     1         -1          0      )
                  (     0         -1          1      )
                  (     0         -1          0      )

 cart.    s(12) = (  0.0000000  0.0000000 -1.0000000 )
                  (  1.0000000  0.0000000  0.0000000 )
                  (  0.0000000 -1.0000000  0.0000000 )


      isym = 13     inv. 180 deg rotation - cart. axis [1,1,0]   

 cryst.   s(13) = (     0          1          0      )
                  (     1          0          0      )
                  (     0          0          1      )

 cart.    s(13) = (  0.0000000 -1.0000000  0.0000000 )
                  ( -1.0000000  0.0000000  0.0000000 )
                  (  0.0000000  0.0000000  1.0000000 )


      isym = 14     inv. 180 deg rotation - cart. axis [1,-1,0]  

 cryst.   s(14) = (     1          0         -1      )
                  (     0          1         -1      )
                  (     0          0         -1      )

 cart.    s(14) = (  0.0000000  1.0000000  0.0000000 )
                  (  1.0000000  0.0000000  0.0000000 )
                  (  0.0000000  0.0000000  1.0000000 )


      isym = 15     inv.  90 deg rotation - cart. axis [0,0,-1]  

 cryst.   s(15) = (     0         -1          0      )
                  (     0         -1          1      )
                  (     1         -1          0      )

 cart.    s(15) = (  0.0000000 -1.0000000  0.0000000 )
                  (  1.0000000  0.0000000  0.0000000 )
                  (  0.0000000  0.0000000 -1.0000000 )


      isym = 16     inv.  90 deg rotation - cart. axis [0,0,1]   

 cryst.   s(16) = (    -1          0          1      )
                  (    -1          0          0      )
                  (    -1          1          0      )

 cart.    s(16) = (  0.0000000  1.0000000  0.0000000 )
                  ( -1.0000000  0.0000000  0.0000000 )
                  (  0.0000000  0.0000000 -1.0000000 )


      isym = 17     inv. 180 deg rotation - cart. axis [1,0,1]   

 cryst.   s(17) = (     1          0          0      )
                  (     0          0          1      )
                  (     0          1          0      )

 cart.    s(17) = (  0.0000000  0.0000000 -1.0000000 )
                  (  0.0000000  1.0000000  0.0000000 )
                  ( -1.0000000  0.0000000  0.0000000 )


      isym = 18     inv. 180 deg rotation - cart. axis [-1,0,1]  

 cryst.   s(18) = (    -1          0          0      )
                  (    -1          1          0      )
                  (    -1          0          1      )

 cart.    s(18) = (  0.0000000  0.0000000  1.0000000 )
                  (  0.0000000  1.0000000  0.0000000 )
                  (  1.0000000  0.0000000  0.0000000 )


      isym = 19     inv.  90 deg rotation - cart. axis [0,1,0]   

 cryst.   s(19) = (     0         -1          1      )
                  (     1         -1          0      )
                  (     0         -1          0      )

 cart.    s(19) = (  0.0000000  0.0000000 -1.0000000 )
                  (  0.0000000 -1.0000000  0.0000000 )
                  (  1.0000000  0.0000000  0.0000000 )


      isym = 20     inv.  90 deg rotation - cart. axis [0,-1,0]  

 cryst.   s(20) = (     0          1         -1      )
                  (     0          0         -1      )
                  (     1          0         -1      )

 cart.    s(20) = (  0.0000000  0.0000000  1.0000000 )
                  (  0.0000000 -1.0000000  0.0000000 )
                  ( -1.0000000  0.0000000  0.0000000 )


      isym = 21     inv. 180 deg rotation - cart. axis [0,1,1]   

 cryst.   s(21) = (     1         -1          0      )
                  (     0         -1          0      )
                  (     0         -1          1      )

 cart.    s(21) = (  1.0000000  0.0000000  0.0000000 )
                  (  0.0000000  0.0000000 -1.0000000 )
                  (  0.0000000 -1.0000000  0.0000000 )


      isym = 22     inv. 180 deg rotation - cart. axis [0,1,-1]  

 cryst.   s(22) = (     0          0          1      )
                  (     0          1          0      )
                  (     1          0          0      )

 cart.    s(22) = (  1.0000000  0.0000000  0.0000000 )
                  (  0.0000000  0.0000000  1.0000000 )
                  (  0.0000000  1.0000000  0.0000000 )


      isym = 23     inv.  90 deg rotation - cart. axis [-1,0,0]  

 cryst.   s(23) = (     0          0         -1      )
                  (     1          0         -1      )
                  (     0          1         -1      )

 cart.    s(23) = ( -1.0000000  0.0000000  0.0000000 )
                  (  0.0000000  0.0000000 -1.0000000 )
                  (  0.0000000  1.0000000  0.0000000 )


      isym = 24     inv.  90 deg rotation - cart. axis [1,0,0]   

 cryst.   s(24) = (    -1          1          0      )
                  (    -1          0          1      )
                  (    -1          0          0      )

 cart.    s(24) = ( -1.0000000  0.0000000  0.0000000 )
                  (  0.0000000  0.0000000  1.0000000 )
                  (  0.0000000 -1.0000000  0.0000000 )


     point group T_d (-43m) 
     there are  5 classes
     the character table:

       E     8C3   3C2   6S4   6s_d 
A_1    1.00  1.00  1.00  1.00  1.00
A_2    1.00  1.00  1.00 -1.00 -1.00
E      2.00 -1.00  2.00  0.00  0.00
T_1    3.00  0.00 -1.00  1.00 -1.00
T_2    3.00  0.00 -1.00 -1.00  1.00

     the symmetry operations in each class and the name of the first element:

     E        1
          identity                                               
     8C3      5    7    8    6   12    9   10   11
          120 deg rotation - cart. axis [-1,-1,-1]               
     3C2      2    3    4
          180 deg rotation - cart. axis [0,0,1]                  
     6S4     15   16   20   19   23   24
          inv.  90 deg rotation - cart. axis [0,0,-1]            
     6s_d    13   14   17   18   21   22
          inv. 180 deg rotation - cart. axis [1,1,0]             

   Cartesian axes

     site n.     atom                  positions (alat units)
         1           Zn  tau(   1) = (   0.0000000   0.0000000   0.0000000  )
         2           S   tau(   2) = (   0.2500000   0.2500000   0.2500000  )

   Crystallographic axes

     site n.     atom                  positions (cryst. coord.)
         1           Zn  tau(   1) = (  0.0000000  0.0000000  0.0000000  )
         2           S   tau(   2) = ( -0.2500000  0.7500000 -0.2500000  )

     number of k points=   201
                       cart. coord. in units 2pi/alat
        k(    1) = (   0.0000000   0.0000000   1.0000000), wk =   0.0099502
        k(    2) = (   0.0000000   0.0000000   0.9750000), wk =   0.0099502
        k(    3) = (   0.0000000   0.0000000   0.9500000), wk =   0.0099502
        k(    4) = (   0.0000000   0.0000000   0.9250000), wk =   0.0099502
        k(    5) = (   0.0000000   0.0000000   0.9000000), wk =   0.0099502
        k(    6) = (   0.0000000   0.0000000   0.8750000), wk =   0.0099502
        k(    7) = (   0.0000000   0.0000000   0.8500000), wk =   0.0099502
        k(    8) = (   0.0000000   0.0000000   0.8250000), wk =   0.0099502
        k(    9) = (   0.0000000   0.0000000   0.8000000), wk =   0.0099502
        k(   10) = (   0.0000000   0.0000000   0.7750000), wk =   0.0099502
        k(   11) = (   0.0000000   0.0000000   0.7500000), wk =   0.0099502
        k(   12) = (   0.0000000   0.0000000   0.7250000), wk =   0.0099502
        k(   13) = (   0.0000000   0.0000000   0.7000000), wk =   0.0099502
        k(   14) = (   0.0000000   0.0000000   0.6750000), wk =   0.0099502
        k(   15) = (   0.0000000   0.0000000   0.6500000), wk =   0.0099502
        k(   16) = (   0.0000000   0.0000000   0.6250000), wk =   0.0099502
        k(   17) = (   0.0000000   0.0000000   0.6000000), wk =   0.0099502
        k(   18) = (   0.0000000   0.0000000   0.5750000), wk =   0.0099502
        k(   19) = (   0.0000000   0.0000000   0.5500000), wk =   0.0099502
        k(   20) = (   0.0000000   0.0000000   0.5250000), wk =   0.0099502
        k(   21) = (   0.0000000   0.0000000   0.5000000), wk =   0.0099502
        k(   22) = (   0.0000000   0.0000000   0.4750000), wk =   0.0099502
        k(   23) = (   0.0000000   0.0000000   0.4500000), wk =   0.0099502
        k(   24) = (   0.0000000   0.0000000   0.4250000), wk =   0.0099502
        k(   25) = (   0.0000000   0.0000000   0.4000000), wk =   0.0099502
        k(   26) = (   0.0000000   0.0000000   0.3750000), wk =   0.0099502
        k(   27) = (   0.0000000   0.0000000   0.3500000), wk =   0.0099502
        k(   28) = (   0.0000000   0.0000000   0.3250000), wk =   0.0099502
        k(   29) = (   0.0000000   0.0000000   0.3000000), wk =   0.0099502
        k(   30) = (   0.0000000   0.0000000   0.2750000), wk =   0.0099502
        k(   31) = (   0.0000000   0.0000000   0.2500000), wk =   0.0099502
        k(   32) = (   0.0000000   0.0000000   0.2250000), wk =   0.0099502
        k(   33) = (   0.0000000   0.0000000   0.2000000), wk =   0.0099502
        k(   34) = (   0.0000000   0.0000000   0.1750000), wk =   0.0099502
        k(   35) = (   0.0000000   0.0000000   0.1500000), wk =   0.0099502
        k(   36) = (   0.0000000   0.0000000   0.1250000), wk =   0.0099502
        k(   37) = (   0.0000000   0.0000000   0.1000000), wk =   0.0099502
        k(   38) = (   0.0000000   0.0000000   0.0750000), wk =   0.0099502
        k(   39) = (   0.0000000   0.0000000   0.0500000), wk =   0.0099502
        k(   40) = (   0.0000000   0.0000000   0.0250000), wk =   0.0099502
        k(   41) = (   0.0000000   0.0000000   0.0000000), wk =   0.0099502
        k(   42) = (  -0.0125000   0.0125000   0.0125000), wk =   0.0099502
        k(   43) = (  -0.0250000   0.0250000   0.0250000), wk =   0.0099502
        k(   44) = (  -0.0375000   0.0375000   0.0375000), wk =   0.0099502
        k(   45) = (  -0.0500000   0.0500000   0.0500000), wk =   0.0099502
        k(   46) = (  -0.0625000   0.0625000   0.0625000), wk =   0.0099502
        k(   47) = (  -0.0750000   0.0750000   0.0750000), wk =   0.0099502
        k(   48) = (  -0.0875000   0.0875000   0.0875000), wk =   0.0099502
        k(   49) = (  -0.1000000   0.1000000   0.1000000), wk =   0.0099502
        k(   50) = (  -0.1125000   0.1125000   0.1125000), wk =   0.0099502
        k(   51) = (  -0.1250000   0.1250000   0.1250000), wk =   0.0099502
        k(   52) = (  -0.1375000   0.1375000   0.1375000), wk =   0.0099502
        k(   53) = (  -0.1500000   0.1500000   0.1500000), wk =   0.0099502
        k(   54) = (  -0.1625000   0.1625000   0.1625000), wk =   0.0099502
        k(   55) = (  -0.1750000   0.1750000   0.1750000), wk =   0.0099502
        k(   56) = (  -0.1875000   0.1875000   0.1875000), wk =   0.0099502
        k(   57) = (  -0.2000000   0.2000000   0.2000000), wk =   0.0099502
        k(   58) = (  -0.2125000   0.2125000   0.2125000), wk =   0.0099502
        k(   59) = (  -0.2250000   0.2250000   0.2250000), wk =   0.0099502
        k(   60) = (  -0.2375000   0.2375000   0.2375000), wk =   0.0099502
        k(   61) = (  -0.2500000   0.2500000   0.2500000), wk =   0.0099502
        k(   62) = (  -0.2625000   0.2625000   0.2625000), wk =   0.0099502
        k(   63) = (  -0.2750000   0.2750000   0.2750000), wk =   0.0099502
        k(   64) = (  -0.2875000   0.2875000   0.2875000), wk =   0.0099502
        k(   65) = (  -0.3000000   0.3000000   0.3000000), wk =   0.0099502
        k(   66) = (  -0.3125000   0.3125000   0.3125000), wk =   0.0099502
        k(   67) = (  -0.3250000   0.3250000   0.3250000), wk =   0.0099502
        k(   68) = (  -0.3375000   0.3375000   0.3375000), wk =   0.0099502
        k(   69) = (  -0.3500000   0.3500000   0.3500000), wk =   0.0099502
        k(   70) = (  -0.3625000   0.3625000   0.3625000), wk =   0.0099502
        k(   71) = (  -0.3750000   0.3750000   0.3750000), wk =   0.0099502
        k(   72) = (  -0.3875000   0.3875000   0.3875000), wk =   0.0099502
        k(   73) = (  -0.4000000   0.4000000   0.4000000), wk =   0.0099502
        k(   74) = (  -0.4125000   0.4125000   0.4125000), wk =   0.0099502
        k(   75) = (  -0.4250000   0.4250000   0.4250000), wk =   0.0099502
        k(   76) = (  -0.4375000   0.4375000   0.4375000), wk =   0.0099502
        k(   77) = (  -0.4500000   0.4500000   0.4500000), wk =   0.0099502
        k(   78) = (  -0.4625000   0.4625000   0.4625000), wk =   0.0099502
        k(   79) = (  -0.4750000   0.4750000   0.4750000), wk =   0.0099502
        k(   80) = (  -0.4875000   0.4875000   0.4875000), wk =   0.0099502
        k(   81) = (  -0.5000000   0.5000000   0.5000000), wk =   0.0099502
        k(   82) = (  -0.5000000   0.4875000   0.5125000), wk =   0.0099502
        k(   83) = (  -0.5000000   0.4750000   0.5250000), wk =   0.0099502
        k(   84) = (  -0.5000000   0.4625000   0.5375000), wk =   0.0099502
        k(   85) = (  -0.5000000   0.4500000   0.5500000), wk =   0.0099502
        k(   86) = (  -0.5000000   0.4375000   0.5625000), wk =   0.0099502
        k(   87) = (  -0.5000000   0.4250000   0.5750000), wk =   0.0099502
        k(   88) = (  -0.5000000   0.4125000   0.5875000), wk =   0.0099502
        k(   89) = (  -0.5000000   0.4000000   0.6000000), wk =   0.0099502
        k(   90) = (  -0.5000000   0.3875000   0.6125000), wk =   0.0099502
        k(   91) = (  -0.5000000   0.3750000   0.6250000), wk =   0.0099502
        k(   92) = (  -0.5000000   0.3625000   0.6375000), wk =   0.0099502
        k(   93) = (  -0.5000000   0.3500000   0.6500000), wk =   0.0099502
        k(   94) = (  -0.5000000   0.3375000   0.6625000), wk =   0.0099502
        k(   95) = (  -0.5000000   0.3250000   0.6750000), wk =   0.0099502
        k(   96) = (  -0.5000000   0.3125000   0.6875000), wk =   0.0099502
        k(   97) = (  -0.5000000   0.3000000   0.7000000), wk =   0.0099502
        k(   98) = (  -0.5000000   0.2875000   0.7125000), wk =   0.0099502
        k(   99) = (  -0.5000000   0.2750000   0.7250000), wk =   0.0099502
        k(  100) = (  -0.5000000   0.2625000   0.7375000), wk =   0.0099502
        k(  101) = (  -0.5000000   0.2500000   0.7500000), wk =   0.0099502
        k(  102) = (  -0.5000000   0.2375000   0.7625000), wk =   0.0099502
        k(  103) = (  -0.5000000   0.2250000   0.7750000), wk =   0.0099502
        k(  104) = (  -0.5000000   0.2125000   0.7875000), wk =   0.0099502
        k(  105) = (  -0.5000000   0.2000000   0.8000000), wk =   0.0099502
        k(  106) = (  -0.5000000   0.1875000   0.8125000), wk =   0.0099502
        k(  107) = (  -0.5000000   0.1750000   0.8250000), wk =   0.0099502
        k(  108) = (  -0.5000000   0.1625000   0.8375000), wk =   0.0099502
        k(  109) = (  -0.5000000   0.1500000   0.8500000), wk =   0.0099502
        k(  110) = (  -0.5000000   0.1375000   0.8625000), wk =   0.0099502
        k(  111) = (  -0.5000000   0.1250000   0.8750000), wk =   0.0099502
        k(  112) = (  -0.5000000   0.1125000   0.8875000), wk =   0.0099502
        k(  113) = (  -0.5000000   0.1000000   0.9000000), wk =   0.0099502
        k(  114) = (  -0.5000000   0.0875000   0.9125000), wk =   0.0099502
        k(  115) = (  -0.5000000   0.0750000   0.9250000), wk =   0.0099502
        k(  116) = (  -0.5000000   0.0625000   0.9375000), wk =   0.0099502
        k(  117) = (  -0.5000000   0.0500000   0.9500000), wk =   0.0099502
        k(  118) = (  -0.5000000   0.0375000   0.9625000), wk =   0.0099502
        k(  119) = (  -0.5000000   0.0250000   0.9750000), wk =   0.0099502
        k(  120) = (  -0.5000000   0.0125000   0.9875000), wk =   0.0099502
        k(  121) = (  -0.5000000   0.0000000   1.0000000), wk =   0.0099502
        k(  122) = (  -0.5062500   0.0000000   0.9937500), wk =   0.0099502
        k(  123) = (  -0.5125000   0.0000000   0.9875000), wk =   0.0099502
        k(  124) = (  -0.5187500   0.0000000   0.9812500), wk =   0.0099502
        k(  125) = (  -0.5250000   0.0000000   0.9750000), wk =   0.0099502
        k(  126) = (  -0.5312500   0.0000000   0.9687500), wk =   0.0099502
        k(  127) = (  -0.5375000   0.0000000   0.9625000), wk =   0.0099502
        k(  128) = (  -0.5437500   0.0000000   0.9562500), wk =   0.0099502
        k(  129) = (  -0.5500000   0.0000000   0.9500000), wk =   0.0099502
        k(  130) = (  -0.5562500   0.0000000   0.9437500), wk =   0.0099502
        k(  131) = (  -0.5625000   0.0000000   0.9375000), wk =   0.0099502
        k(  132) = (  -0.5687500   0.0000000   0.9312500), wk =   0.0099502
        k(  133) = (  -0.5750000   0.0000000   0.9250000), wk =   0.0099502
        k(  134) = (  -0.5812500   0.0000000   0.9187500), wk =   0.0099502
        k(  135) = (  -0.5875000   0.0000000   0.9125000), wk =   0.0099502
        k(  136) = (  -0.5937500   0.0000000   0.9062500), wk =   0.0099502
        k(  137) = (  -0.6000000   0.0000000   0.9000000), wk =   0.0099502
        k(  138) = (  -0.6062500   0.0000000   0.8937500), wk =   0.0099502
        k(  139) = (  -0.6125000   0.0000000   0.8875000), wk =   0.0099502
        k(  140) = (  -0.6187500   0.0000000   0.8812500), wk =   0.0099502
        k(  141) = (  -0.6250000   0.0000000   0.8750000), wk =   0.0099502
        k(  142) = (  -0.6312500   0.0000000   0.8687500), wk =   0.0099502
        k(  143) = (  -0.6375000   0.0000000   0.8625000), wk =   0.0099502
        k(  144) = (  -0.6437500   0.0000000   0.8562500), wk =   0.0099502
        k(  145) = (  -0.6500000   0.0000000   0.8500000), wk =   0.0099502
        k(  146) = (  -0.6562500   0.0000000   0.8437500), wk =   0.0099502
        k(  147) = (  -0.6625000   0.0000000   0.8375000), wk =   0.0099502
        k(  148) = (  -0.6687500   0.0000000   0.8312500), wk =   0.0099502
        k(  149) = (  -0.6750000   0.0000000   0.8250000), wk =   0.0099502
        k(  150) = (  -0.6812500   0.0000000   0.8187500), wk =   0.0099502
        k(  151) = (  -0.6875000   0.0000000   0.8125000), wk =   0.0099502
        k(  152) = (  -0.6937500   0.0000000   0.8062500), wk =   0.0099502
        k(  153) = (  -0.7000000   0.0000000   0.8000000), wk =   0.0099502
        k(  154) = (  -0.7062500   0.0000000   0.7937500), wk =   0.0099502
        k(  155) = (  -0.7125000   0.0000000   0.7875000), wk =   0.0099502
        k(  156) = (  -0.7187500   0.0000000   0.7812500), wk =   0.0099502
        k(  157) = (  -0.7250000   0.0000000   0.7750000), wk =   0.0099502
        k(  158) = (  -0.7312500   0.0000000   0.7687500), wk =   0.0099502
        k(  159) = (  -0.7375000   0.0000000   0.7625000), wk =   0.0099502
        k(  160) = (  -0.7437500   0.0000000   0.7562500), wk =   0.0099502
        k(  161) = (  -0.7500000   0.0000000   0.7500000), wk =   0.0099502
        k(  162) = (  -0.7312500   0.0000000   0.7312500), wk =   0.0099502
        k(  163) = (  -0.7125000   0.0000000   0.7125000), wk =   0.0099502
        k(  164) = (  -0.6937500   0.0000000   0.6937500), wk =   0.0099502
        k(  165) = (  -0.6750000   0.0000000   0.6750000), wk =   0.0099502
        k(  166) = (  -0.6562500   0.0000000   0.6562500), wk =   0.0099502
        k(  167) = (  -0.6375000   0.0000000   0.6375000), wk =   0.0099502
        k(  168) = (  -0.6187500   0.0000000   0.6187500), wk =   0.0099502
        k(  169) = (  -0.6000000   0.0000000   0.6000000), wk =   0.0099502
        k(  170) = (  -0.5812500   0.0000000   0.5812500), wk =   0.0099502
        k(  171) = (  -0.5625000   0.0000000   0.5625000), wk =   0.0099502
        k(  172) = (  -0.5437500   0.0000000   0.5437500), wk =   0.0099502
        k(  173) = (  -0.5250000   0.0000000   0.5250000), wk =   0.0099502
        k(  174) = (  -0.5062500   0.0000000   0.5062500), wk =   0.0099502
        k(  175) = (  -0.4875000   0.0000000   0.4875000), wk =   0.0099502
        k(  176) = (  -0.4687500   0.0000000   0.4687500), wk =   0.0099502
        k(  177) = (  -0.4500000   0.0000000   0.4500000), wk =   0.0099502
        k(  178) = (  -0.4312500   0.0000000   0.4312500), wk =   0.0099502
        k(  179) = (  -0.4125000   0.0000000   0.4125000), wk =   0.0099502
        k(  180) = (  -0.3937500   0.0000000   0.3937500), wk =   0.0099502
        k(  181) = (  -0.3750000   0.0000000   0.3750000), wk =   0.0099502
        k(  182) = (  -0.3562500   0.0000000   0.3562500), wk =   0.0099502
        k(  183) = (  -0.3375000   0.0000000   0.3375000), wk =   0.0099502
        k(  184) = (  -0.3187500   0.0000000   0.3187500), wk =   0.0099502
        k(  185) = (  -0.3000000   0.0000000   0.3000000), wk =   0.0099502
        k(  186) = (  -0.2812500   0.0000000   0.2812500), wk =   0.0099502
        k(  187) = (  -0.2625000   0.0000000   0.2625000), wk =   0.0099502
        k(  188) = (  -0.2437500   0.0000000   0.2437500), wk =   0.0099502
        k(  189) = (  -0.2250000   0.0000000   0.2250000), wk =   0.0099502
        k(  190) = (  -0.2062500   0.0000000   0.2062500), wk =   0.0099502
        k(  191) = (  -0.1875000   0.0000000   0.1875000), wk =   0.0099502
        k(  192) = (  -0.1687500   0.0000000   0.1687500), wk =   0.0099502
        k(  193) = (  -0.1500000   0.0000000   0.1500000), wk =   0.0099502
        k(  194) = (  -0.1312500   0.0000000   0.1312500), wk =   0.0099502
        k(  195) = (  -0.1125000   0.0000000   0.1125000), wk =   0.0099502
        k(  196) = (  -0.0937500   0.0000000   0.0937500), wk =   0.0099502
        k(  197) = (  -0.0750000   0.0000000   0.0750000), wk =   0.0099502
        k(  198) = (  -0.0562500   0.0000000   0.0562500), wk =   0.0099502
        k(  199) = (  -0.0375000   0.0000000   0.0375000), wk =   0.0099502
        k(  200) = (  -0.0187500   0.0000000   0.0187500), wk =   0.0099502
        k(  201) = (   0.0000000   0.0000000   0.0000000), wk =   0.0099502

                       cryst. coord.
        k(    1) = (   0.5000000   0.5000000   0.0000000), wk =   0.0099502
        k(    2) = (   0.4875000   0.4875000   0.0000000), wk =   0.0099502
        k(    3) = (   0.4750000   0.4750000   0.0000000), wk =   0.0099502
        k(    4) = (   0.4625000   0.4625000   0.0000000), wk =   0.0099502
        k(    5) = (   0.4500000   0.4500000   0.0000000), wk =   0.0099502
        k(    6) = (   0.4375000   0.4375000   0.0000000), wk =   0.0099502
        k(    7) = (   0.4250000   0.4250000   0.0000000), wk =   0.0099502
        k(    8) = (   0.4125000   0.4125000   0.0000000), wk =   0.0099502
        k(    9) = (   0.4000000   0.4000000   0.0000000), wk =   0.0099502
        k(   10) = (   0.3875000   0.3875000   0.0000000), wk =   0.0099502
        k(   11) = (   0.3750000   0.3750000   0.0000000), wk =   0.0099502
        k(   12) = (   0.3625000   0.3625000   0.0000000), wk =   0.0099502
        k(   13) = (   0.3500000   0.3500000   0.0000000), wk =   0.0099502
        k(   14) = (   0.3375000   0.3375000   0.0000000), wk =   0.0099502
        k(   15) = (   0.3250000   0.3250000   0.0000000), wk =   0.0099502
        k(   16) = (   0.3125000   0.3125000   0.0000000), wk =   0.0099502
        k(   17) = (   0.3000000   0.3000000   0.0000000), wk =   0.0099502
        k(   18) = (   0.2875000   0.2875000   0.0000000), wk =   0.0099502
        k(   19) = (   0.2750000   0.2750000   0.0000000), wk =   0.0099502
        k(   20) = (   0.2625000   0.2625000   0.0000000), wk =   0.0099502
        k(   21) = (   0.2500000   0.2500000   0.0000000), wk =   0.0099502
        k(   22) = (   0.2375000   0.2375000   0.0000000), wk =   0.0099502
        k(   23) = (   0.2250000   0.2250000   0.0000000), wk =   0.0099502
        k(   24) = (   0.2125000   0.2125000   0.0000000), wk =   0.0099502
        k(   25) = (   0.2000000   0.2000000   0.0000000), wk =   0.0099502
        k(   26) = (   0.1875000   0.1875000   0.0000000), wk =   0.0099502
        k(   27) = (   0.1750000   0.1750000   0.0000000), wk =   0.0099502
        k(   28) = (   0.1625000   0.1625000   0.0000000), wk =   0.0099502
        k(   29) = (   0.1500000   0.1500000   0.0000000), wk =   0.0099502
        k(   30) = (   0.1375000   0.1375000   0.0000000), wk =   0.0099502
        k(   31) = (   0.1250000   0.1250000   0.0000000), wk =   0.0099502
        k(   32) = (   0.1125000   0.1125000   0.0000000), wk =   0.0099502
        k(   33) = (   0.1000000   0.1000000   0.0000000), wk =   0.0099502
        k(   34) = (   0.0875000   0.0875000   0.0000000), wk =   0.0099502
        k(   35) = (   0.0750000   0.0750000   0.0000000), wk =   0.0099502
        k(   36) = (   0.0625000   0.0625000   0.0000000), wk =   0.0099502
        k(   37) = (   0.0500000   0.0500000   0.0000000), wk =   0.0099502
        k(   38) = (   0.0375000   0.0375000   0.0000000), wk =   0.0099502
        k(   39) = (   0.0250000   0.0250000   0.0000000), wk =   0.0099502
        k(   40) = (   0.0125000   0.0125000   0.0000000), wk =   0.0099502
        k(   41) = (   0.0000000   0.0000000   0.0000000), wk =   0.0099502
        k(   42) = (   0.0125000   0.0125000   0.0125000), wk =   0.0099502
        k(   43) = (   0.0250000   0.0250000   0.0250000), wk =   0.0099502
        k(   44) = (   0.0375000   0.0375000   0.0375000), wk =   0.0099502
        k(   45) = (   0.0500000   0.0500000   0.0500000), wk =   0.0099502
        k(   46) = (   0.0625000   0.0625000   0.0625000), wk =   0.0099502
        k(   47) = (   0.0750000   0.0750000   0.0750000), wk =   0.0099502
        k(   48) = (   0.0875000   0.0875000   0.0875000), wk =   0.0099502
        k(   49) = (   0.1000000   0.1000000   0.1000000), wk =   0.0099502
        k(   50) = (   0.1125000   0.1125000   0.1125000), wk =   0.0099502
        k(   51) = (   0.1250000   0.1250000   0.1250000), wk =   0.0099502
        k(   52) = (   0.1375000   0.1375000   0.1375000), wk =   0.0099502
        k(   53) = (   0.1500000   0.1500000   0.1500000), wk =   0.0099502
        k(   54) = (   0.1625000   0.1625000   0.1625000), wk =   0.0099502
        k(   55) = (   0.1750000   0.1750000   0.1750000), wk =   0.0099502
        k(   56) = (   0.1875000   0.1875000   0.1875000), wk =   0.0099502
        k(   57) = (   0.2000000   0.2000000   0.2000000), wk =   0.0099502
        k(   58) = (   0.2125000   0.2125000   0.2125000), wk =   0.0099502
        k(   59) = (   0.2250000   0.2250000   0.2250000), wk =   0.0099502
        k(   60) = (   0.2375000   0.2375000   0.2375000), wk =   0.0099502
        k(   61) = (   0.2500000   0.2500000   0.2500000), wk =   0.0099502
        k(   62) = (   0.2625000   0.2625000   0.2625000), wk =   0.0099502
        k(   63) = (   0.2750000   0.2750000   0.2750000), wk =   0.0099502
        k(   64) = (   0.2875000   0.2875000   0.2875000), wk =   0.0099502
        k(   65) = (   0.3000000   0.3000000   0.3000000), wk =   0.0099502
        k(   66) = (   0.3125000   0.3125000   0.3125000), wk =   0.0099502
        k(   67) = (   0.3250000   0.3250000   0.3250000), wk =   0.0099502
        k(   68) = (   0.3375000   0.3375000   0.3375000), wk =   0.0099502
        k(   69) = (   0.3500000   0.3500000   0.3500000), wk =   0.0099502
        k(   70) = (   0.3625000   0.3625000   0.3625000), wk =   0.0099502
        k(   71) = (   0.3750000   0.3750000   0.3750000), wk =   0.0099502
        k(   72) = (   0.3875000   0.3875000   0.3875000), wk =   0.0099502
        k(   73) = (   0.4000000   0.4000000   0.4000000), wk =   0.0099502
        k(   74) = (   0.4125000   0.4125000   0.4125000), wk =   0.0099502
        k(   75) = (   0.4250000   0.4250000   0.4250000), wk =   0.0099502
        k(   76) = (   0.4375000   0.4375000   0.4375000), wk =   0.0099502
        k(   77) = (   0.4500000   0.4500000   0.4500000), wk =   0.0099502
        k(   78) = (   0.4625000   0.4625000   0.4625000), wk =   0.0099502
        k(   79) = (   0.4750000   0.4750000   0.4750000), wk =   0.0099502
        k(   80) = (   0.4875000   0.4875000   0.4875000), wk =   0.0099502
        k(   81) = (   0.5000000   0.5000000   0.5000000), wk =   0.0099502
        k(   82) = (   0.5062500   0.5000000   0.4937500), wk =   0.0099502
        k(   83) = (   0.5125000   0.5000000   0.4875000), wk =   0.0099502
        k(   84) = (   0.5187500   0.5000000   0.4812500), wk =   0.0099502
        k(   85) = (   0.5250000   0.5000000   0.4750000), wk =   0.0099502
        k(   86) = (   0.5312500   0.5000000   0.4687500), wk =   0.0099502
        k(   87) = (   0.5375000   0.5000000   0.4625000), wk =   0.0099502
        k(   88) = (   0.5437500   0.5000000   0.4562500), wk =   0.0099502
        k(   89) = (   0.5500000   0.5000000   0.4500000), wk =   0.0099502
        k(   90) = (   0.5562500   0.5000000   0.4437500), wk =   0.0099502
        k(   91) = (   0.5625000   0.5000000   0.4375000), wk =   0.0099502
        k(   92) = (   0.5687500   0.5000000   0.4312500), wk =   0.0099502
        k(   93) = (   0.5750000   0.5000000   0.4250000), wk =   0.0099502
        k(   94) = (   0.5812500   0.5000000   0.4187500), wk =   0.0099502
        k(   95) = (   0.5875000   0.5000000   0.4125000), wk =   0.0099502
        k(   96) = (   0.5937500   0.5000000   0.4062500), wk =   0.0099502
        k(   97) = (   0.6000000   0.5000000   0.4000000), wk =   0.0099502
        k(   98) = (   0.6062500   0.5000000   0.3937500), wk =   0.0099502
        k(   99) = (   0.6125000   0.5000000   0.3875000), wk =   0.0099502
        k(  100) = (   0.6187500   0.5000000   0.3812500), wk =   0.0099502
        k(  101) = (   0.6250000   0.5000000   0.3750000), wk =   0.0099502
        k(  102) = (   0.6312500   0.5000000   0.3687500), wk =   0.0099502
        k(  103) = (   0.6375000   0.5000000   0.3625000), wk =   0.0099502
        k(  104) = (   0.6437500   0.5000000   0.3562500), wk =   0.0099502
        k(  105) = (   0.6500000   0.5000000   0.3500000), wk =   0.0099502
        k(  106) = (   0.6562500   0.5000000   0.3437500), wk =   0.0099502
        k(  107) = (   0.6625000   0.5000000   0.3375000), wk =   0.0099502
        k(  108) = (   0.6687500   0.5000000   0.3312500), wk =   0.0099502
        k(  109) = (   0.6750000   0.5000000   0.3250000), wk =   0.0099502
        k(  110) = (   0.6812500   0.5000000   0.3187500), wk =   0.0099502
        k(  111) = (   0.6875000   0.5000000   0.3125000), wk =   0.0099502
        k(  112) = (   0.6937500   0.5000000   0.3062500), wk =   0.0099502
        k(  113) = (   0.7000000   0.5000000   0.3000000), wk =   0.0099502
        k(  114) = (   0.7062500   0.5000000   0.2937500), wk =   0.0099502
        k(  115) = (   0.7125000   0.5000000   0.2875000), wk =   0.0099502
        k(  116) = (   0.7187500   0.5000000   0.2812500), wk =   0.0099502
        k(  117) = (   0.7250000   0.5000000   0.2750000), wk =   0.0099502
        k(  118) = (   0.7312500   0.5000000   0.2687500), wk =   0.0099502
        k(  119) = (   0.7375000   0.5000000   0.2625000), wk =   0.0099502
        k(  120) = (   0.7437500   0.5000000   0.2562500), wk =   0.0099502
        k(  121) = (   0.7500000   0.5000000   0.2500000), wk =   0.0099502
        k(  122) = (   0.7500000   0.4968750   0.2531250), wk =   0.0099502
        k(  123) = (   0.7500000   0.4937500   0.2562500), wk =   0.0099502
        k(  124) = (   0.7500000   0.4906250   0.2593750), wk =   0.0099502
        k(  125) = (   0.7500000   0.4875000   0.2625000), wk =   0.0099502
        k(  126) = (   0.7500000   0.4843750   0.2656250), wk =   0.0099502
        k(  127) = (   0.7500000   0.4812500   0.2687500), wk =   0.0099502
        k(  128) = (   0.7500000   0.4781250   0.2718750), wk =   0.0099502
        k(  129) = (   0.7500000   0.4750000   0.2750000), wk =   0.0099502
        k(  130) = (   0.7500000   0.4718750   0.2781250), wk =   0.0099502
        k(  131) = (   0.7500000   0.4687500   0.2812500), wk =   0.0099502
        k(  132) = (   0.7500000   0.4656250   0.2843750), wk =   0.0099502
        k(  133) = (   0.7500000   0.4625000   0.2875000), wk =   0.0099502
        k(  134) = (   0.7500000   0.4593750   0.2906250), wk =   0.0099502
        k(  135) = (   0.7500000   0.4562500   0.2937500), wk =   0.0099502
        k(  136) = (   0.7500000   0.4531250   0.2968750), wk =   0.0099502
        k(  137) = (   0.7500000   0.4500000   0.3000000), wk =   0.0099502
        k(  138) = (   0.7500000   0.4468750   0.3031250), wk =   0.0099502
        k(  139) = (   0.7500000   0.4437500   0.3062500), wk =   0.0099502
        k(  140) = (   0.7500000   0.4406250   0.3093750), wk =   0.0099502
        k(  141) = (   0.7500000   0.4375000   0.3125000), wk =   0.0099502
        k(  142) = (   0.7500000   0.4343750   0.3156250), wk =   0.0099502
        k(  143) = (   0.7500000   0.4312500   0.3187500), wk =   0.0099502
        k(  144) = (   0.7500000   0.4281250   0.3218750), wk =   0.0099502
        k(  145) = (   0.7500000   0.4250000   0.3250000), wk =   0.0099502
        k(  146) = (   0.7500000   0.4218750   0.3281250), wk =   0.0099502
        k(  147) = (   0.7500000   0.4187500   0.3312500), wk =   0.0099502
        k(  148) = (   0.7500000   0.4156250   0.3343750), wk =   0.0099502
        k(  149) = (   0.7500000   0.4125000   0.3375000), wk =   0.0099502
        k(  150) = (   0.7500000   0.4093750   0.3406250), wk =   0.0099502
        k(  151) = (   0.7500000   0.4062500   0.3437500), wk =   0.0099502
        k(  152) = (   0.7500000   0.4031250   0.3468750), wk =   0.0099502
        k(  153) = (   0.7500000   0.4000000   0.3500000), wk =   0.0099502
        k(  154) = (   0.7500000   0.3968750   0.3531250), wk =   0.0099502
        k(  155) = (   0.7500000   0.3937500   0.3562500), wk =   0.0099502
        k(  156) = (   0.7500000   0.3906250   0.3593750), wk =   0.0099502
        k(  157) = (   0.7500000   0.3875000   0.3625000), wk =   0.0099502
        k(  158) = (   0.7500000   0.3843750   0.3656250), wk =   0.0099502
        k(  159) = (   0.7500000   0.3812500   0.3687500), wk =   0.0099502
        k(  160) = (   0.7500000   0.3781250   0.3718750), wk =   0.0099502
        k(  161) = (   0.7500000   0.3750000   0.3750000), wk =   0.0099502
        k(  162) = (   0.7312500   0.3656250   0.3656250), wk =   0.0099502
        k(  163) = (   0.7125000   0.3562500   0.3562500), wk =   0.0099502
        k(  164) = (   0.6937500   0.3468750   0.3468750), wk =   0.0099502
        k(  165) = (   0.6750000   0.3375000   0.3375000), wk =   0.0099502
        k(  166) = (   0.6562500   0.3281250   0.3281250), wk =   0.0099502
        k(  167) = (   0.6375000   0.3187500   0.3187500), wk =   0.0099502
        k(  168) = (   0.6187500   0.3093750   0.3093750), wk =   0.0099502
        k(  169) = (   0.6000000   0.3000000   0.3000000), wk =   0.0099502
        k(  170) = (   0.5812500   0.2906250   0.2906250), wk =   0.0099502
        k(  171) = (   0.5625000   0.2812500   0.2812500), wk =   0.0099502
        k(  172) = (   0.5437500   0.2718750   0.2718750), wk =   0.0099502
        k(  173) = (   0.5250000   0.2625000   0.2625000), wk =   0.0099502
        k(  174) = (   0.5062500   0.2531250   0.2531250), wk =   0.0099502
        k(  175) = (   0.4875000   0.2437500   0.2437500), wk =   0.0099502
        k(  176) = (   0.4687500   0.2343750   0.2343750), wk =   0.0099502
        k(  177) = (   0.4500000   0.2250000   0.2250000), wk =   0.0099502
        k(  178) = (   0.4312500   0.2156250   0.2156250), wk =   0.0099502
        k(  179) = (   0.4125000   0.2062500   0.2062500), wk =   0.0099502
        k(  180) = (   0.3937500   0.1968750   0.1968750), wk =   0.0099502
        k(  181) = (   0.3750000   0.1875000   0.1875000), wk =   0.0099502
        k(  182) = (   0.3562500   0.1781250   0.1781250), wk =   0.0099502
        k(  183) = (   0.3375000   0.1687500   0.1687500), wk =   0.0099502
        k(  184) = (   0.3187500   0.1593750   0.1593750), wk =   0.0099502
        k(  185) = (   0.3000000   0.1500000   0.1500000), wk =   0.0099502
        k(  186) = (   0.2812500   0.1406250   0.1406250), wk =   0.0099502
        k(  187) = (   0.2625000   0.1312500   0.1312500), wk =   0.0099502
        k(  188) = (   0.2437500   0.1218750   0.1218750), wk =   0.0099502
        k(  189) = (   0.2250000   0.1125000   0.1125000), wk =   0.0099502
        k(  190) = (   0.2062500   0.1031250   0.1031250), wk =   0.0099502
        k(  191) = (   0.1875000   0.0937500   0.0937500), wk =   0.0099502
        k(  192) = (   0.1687500   0.0843750   0.0843750), wk =   0.0099502
        k(  193) = (   0.1500000   0.0750000   0.0750000), wk =   0.0099502
        k(  194) = (   0.1312500   0.0656250   0.0656250), wk =   0.0099502
        k(  195) = (   0.1125000   0.0562500   0.0562500), wk =   0.0099502
        k(  196) = (   0.0937500   0.0468750   0.0468750), wk =   0.0099502
        k(  197) = (   0.0750000   0.0375000   0.0375000), wk =   0.0099502
        k(  198) = (   0.0562500   0.0281250   0.0281250), wk =   0.0099502
        k(  199) = (   0.0375000   0.0187500   0.0187500), wk =   0.0099502
        k(  200) = (   0.0187500   0.0093750   0.0093750), wk =   0.0099502
        k(  201) = (   0.0000000   0.0000000   0.0000000), wk =   0.0099502

     Dense  grid:    13323 G-vectors     FFT dimensions: (  36,  36,  36)

     Dynamical RAM for                 wfc:       0.25 MB

     Dynamical RAM for     wfc (w. buffer):       0.25 MB

     Dynamical RAM for           str. fact:       0.41 MB

     Dynamical RAM for           local pot:       0.00 MB

     Dynamical RAM for          nlocal pot:       0.48 MB

     Dynamical RAM for                qrad:       2.49 MB

     Dynamical RAM for          rho,v,vnew:       1.68 MB

     Dynamical RAM for           G-vectors:       0.86 MB

     Dynamical RAM for          h,s,v(r/c):       0.02 MB

     Dynamical RAM for          <psi|beta>:       0.00 MB

     Dynamical RAM for                 psi:       0.51 MB

     Dynamical RAM for                hpsi:       0.51 MB

     Dynamical RAM for      wfcinit/wfcrot:       0.92 MB

     Estimated static dynamical RAM per process >       8.56 MB

     Estimated max dynamical RAM per process >       9.59 MB

     The potential is recalculated from file :
     ./SCRATCH/zns.save/charge-density

     Starting wfcs are   18 randomized atomic wfcs

     Band Structure Calculation
     Davidson diagonalization with overlap

     Computing kpt #:     1  of   201
     total cpu time spent up to now is        0.4 secs

     Computing kpt #:     2  of   201
     total cpu time spent up to now is        0.6 secs

     Computing kpt #:     3  of   201
     total cpu time spent up to now is        0.7 secs

     Computing kpt #:     4  of   201
     total cpu time spent up to now is        0.9 secs

     Computing kpt #:     5  of   201
     total cpu time spent up to now is        1.1 secs

     Computing kpt #:     6  of   201
     total cpu time spent up to now is        1.2 secs

     Computing kpt #:     7  of   201
     total cpu time spent up to now is        1.4 secs

     Computing kpt #:     8  of   201
     total cpu time spent up to now is        1.5 secs

     Computing kpt #:     9  of   201
     total cpu time spent up to now is        1.7 secs

     Computing kpt #:    10  of   201
     total cpu time spent up to now is        1.8 secs

     Computing kpt #:    11  of   201
     total cpu time spent up to now is        2.0 secs

     Computing kpt #:    12  of   201
     total cpu time spent up to now is        2.1 secs

     Computing kpt #:    13  of   201
     total cpu time spent up to now is        2.3 secs

     Computing kpt #:    14  of   201
     total cpu time spent up to now is        2.4 secs

     Computing kpt #:    15  of   201
     total cpu time spent up to now is        2.6 secs

     Computing kpt #:    16  of   201
     total cpu time spent up to now is        2.7 secs

     Computing kpt #:    17  of   201
     total cpu time spent up to now is        2.8 secs

     Computing kpt #:    18  of   201
     total cpu time spent up to now is        3.0 secs

     Computing kpt #:    19  of   201
     total cpu time spent up to now is        3.1 secs

     Computing kpt #:    20  of   201
     total cpu time spent up to now is        3.3 secs

     Computing kpt #:    21  of   201
     total cpu time spent up to now is        3.4 secs

     Computing kpt #:    22  of   201
     total cpu time spent up to now is        3.6 secs

     Computing kpt #:    23  of   201
     total cpu time spent up to now is        3.7 secs

     Computing kpt #:    24  of   201
     total cpu time spent up to now is        3.8 secs

     Computing kpt #:    25  of   201
     total cpu time spent up to now is        4.0 secs

     Computing kpt #:    26  of   201
     total cpu time spent up to now is        4.1 secs

     Computing kpt #:    27  of   201
     total cpu time spent up to now is        4.2 secs

     Computing kpt #:    28  of   201
     total cpu time spent up to now is        4.4 secs

     Computing kpt #:    29  of   201
     total cpu time spent up to now is        4.5 secs

     Computing kpt #:    30  of   201
     total cpu time spent up to now is        4.6 secs

     Computing kpt #:    31  of   201
     total cpu time spent up to now is        4.8 secs

     Computing kpt #:    32  of   201
     total cpu time spent up to now is        4.9 secs

     Computing kpt #:    33  of   201
     total cpu time spent up to now is        5.0 secs

     Computing kpt #:    34  of   201
     total cpu time spent up to now is        5.2 secs

     Computing kpt #:    35  of   201
     total cpu time spent up to now is        5.3 secs

     Computing kpt #:    36  of   201
     total cpu time spent up to now is        5.4 secs

     Computing kpt #:    37  of   201
     total cpu time spent up to now is        5.6 secs

     Computing kpt #:    38  of   201
     total cpu time spent up to now is        5.7 secs

     Computing kpt #:    39  of   201
     total cpu time spent up to now is        5.8 secs

     Computing kpt #:    40  of   201
     total cpu time spent up to now is        6.0 secs

     Computing kpt #:    41  of   201
     total cpu time spent up to now is        6.1 secs

     Computing kpt #:    42  of   201
     total cpu time spent up to now is        6.2 secs

     Computing kpt #:    43  of   201
     total cpu time spent up to now is        6.3 secs

     Computing kpt #:    44  of   201
     total cpu time spent up to now is        6.5 secs

     Computing kpt #:    45  of   201
     total cpu time spent up to now is        6.6 secs

     Computing kpt #:    46  of   201
     total cpu time spent up to now is        6.7 secs

     Computing kpt #:    47  of   201
     total cpu time spent up to now is        6.9 secs

     Computing kpt #:    48  of   201
     total cpu time spent up to now is        7.0 secs

     Computing kpt #:    49  of   201
     total cpu time spent up to now is        7.1 secs

     Computing kpt #:    50  of   201
     total cpu time spent up to now is        7.2 secs

     Computing kpt #:    51  of   201
     total cpu time spent up to now is        7.4 secs

     Computing kpt #:    52  of   201
     total cpu time spent up to now is        7.5 secs

     Computing kpt #:    53  of   201
     total cpu time spent up to now is        7.6 secs

     Computing kpt #:    54  of   201
     total cpu time spent up to now is        7.8 secs

     Computing kpt #:    55  of   201
     total cpu time spent up to now is        7.9 secs

     Computing kpt #:    56  of   201
     total cpu time spent up to now is        8.0 secs

     Computing kpt #:    57  of   201
     total cpu time spent up to now is        8.2 secs

     Computing kpt #:    58  of   201
     total cpu time spent up to now is        8.3 secs

     Computing kpt #:    59  of   201
     total cpu time spent up to now is        8.4 secs

     Computing kpt #:    60  of   201
     total cpu time spent up to now is        8.6 secs

     Computing kpt #:    61  of   201
     total cpu time spent up to now is        8.7 secs

     Computing kpt #:    62  of   201
     total cpu time spent up to now is        8.9 secs

     Computing kpt #:    63  of   201
     total cpu time spent up to now is        9.0 secs

     Computing kpt #:    64  of   201
     total cpu time spent up to now is        9.2 secs

     Computing kpt #:    65  of   201
     total cpu time spent up to now is        9.4 secs

     Computing kpt #:    66  of   201
     total cpu time spent up to now is        9.5 secs

     Computing kpt #:    67  of   201
     total cpu time spent up to now is        9.7 secs

     Computing kpt #:    68  of   201
     total cpu time spent up to now is        9.9 secs

     Computing kpt #:    69  of   201
     total cpu time spent up to now is       10.1 secs

     Computing kpt #:    70  of   201
     total cpu time spent up to now is       10.2 secs

     Computing kpt #:    71  of   201
     total cpu time spent up to now is       10.4 secs

     Computing kpt #:    72  of   201
     total cpu time spent up to now is       10.6 secs

     Computing kpt #:    73  of   201
     total cpu time spent up to now is       10.7 secs

     Computing kpt #:    74  of   201
     total cpu time spent up to now is       10.9 secs

     Computing kpt #:    75  of   201
     total cpu time spent up to now is       11.1 secs

     Computing kpt #:    76  of   201
     total cpu time spent up to now is       11.3 secs

     Computing kpt #:    77  of   201
     total cpu time spent up to now is       11.5 secs

     Computing kpt #:    78  of   201
     total cpu time spent up to now is       11.6 secs

     Computing kpt #:    79  of   201
     total cpu time spent up to now is       11.8 secs

     Computing kpt #:    80  of   201
     total cpu time spent up to now is       12.0 secs

     Computing kpt #:    81  of   201
     total cpu time spent up to now is       12.2 secs

     Computing kpt #:    82  of   201
     total cpu time spent up to now is       12.4 secs

     Computing kpt #:    83  of   201
     total cpu time spent up to now is       12.6 secs

     Computing kpt #:    84  of   201
     total cpu time spent up to now is       12.8 secs

     Computing kpt #:    85  of   201
     total cpu time spent up to now is       13.0 secs

     Computing kpt #:    86  of   201
     total cpu time spent up to now is       13.2 secs

     Computing kpt #:    87  of   201
     total cpu time spent up to now is       13.4 secs

     Computing kpt #:    88  of   201
     total cpu time spent up to now is       13.6 secs

     Computing kpt #:    89  of   201
     total cpu time spent up to now is       13.8 secs

     Computing kpt #:    90  of   201
     total cpu time spent up to now is       13.9 secs

     Computing kpt #:    91  of   201
     total cpu time spent up to now is       14.1 secs

     Computing kpt #:    92  of   201
     total cpu time spent up to now is       14.3 secs

     Computing kpt #:    93  of   201
     total cpu time spent up to now is       14.5 secs

     Computing kpt #:    94  of   201
     total cpu time spent up to now is       14.7 secs

     Computing kpt #:    95  of   201
     total cpu time spent up to now is       14.9 secs

     Computing kpt #:    96  of   201
     total cpu time spent up to now is       15.1 secs

     Computing kpt #:    97  of   201
     total cpu time spent up to now is       15.3 secs

     Computing kpt #:    98  of   201
     total cpu time spent up to now is       15.4 secs

     Computing kpt #:    99  of   201
     total cpu time spent up to now is       15.6 secs

     Computing kpt #:   100  of   201
     total cpu time spent up to now is       15.8 secs

     Computing kpt #:   101  of   201
     total cpu time spent up to now is       16.0 secs

     Computing kpt #:   102  of   201
     total cpu time spent up to now is       16.2 secs

     Computing kpt #:   103  of   201
     total cpu time spent up to now is       16.4 secs

     Computing kpt #:   104  of   201
     total cpu time spent up to now is       16.5 secs

     Computing kpt #:   105  of   201
     total cpu time spent up to now is       16.7 secs

     Computing kpt #:   106  of   201
     total cpu time spent up to now is       16.9 secs

     Computing kpt #:   107  of   201
     total cpu time spent up to now is       17.1 secs

     Computing kpt #:   108  of   201
     total cpu time spent up to now is       17.3 secs

     Computing kpt #:   109  of   201
     total cpu time spent up to now is       17.5 secs

     Computing kpt #:   110  of   201
     total cpu time spent up to now is       17.6 secs

     Computing kpt #:   111  of   201
     total cpu time spent up to now is       17.8 secs

     Computing kpt #:   112  of   201
     total cpu time spent up to now is       18.0 secs

     Computing kpt #:   113  of   201
     total cpu time spent up to now is       18.2 secs

     Computing kpt #:   114  of   201
     total cpu time spent up to now is       18.4 secs

     Computing kpt #:   115  of   201
     total cpu time spent up to now is       18.6 secs

     Computing kpt #:   116  of   201
     total cpu time spent up to now is       18.8 secs

     Computing kpt #:   117  of   201
     total cpu time spent up to now is       18.9 secs

     Computing kpt #:   118  of   201
     total cpu time spent up to now is       19.1 secs

     Computing kpt #:   119  of   201
     total cpu time spent up to now is       19.3 secs

     Computing kpt #:   120  of   201
     total cpu time spent up to now is       19.5 secs

     Computing kpt #:   121  of   201
     total cpu time spent up to now is       19.7 secs

     Computing kpt #:   122  of   201
     total cpu time spent up to now is       19.8 secs

     Computing kpt #:   123  of   201
     total cpu time spent up to now is       20.0 secs

     Computing kpt #:   124  of   201
     total cpu time spent up to now is       20.2 secs

     Computing kpt #:   125  of   201
     total cpu time spent up to now is       20.4 secs

     Computing kpt #:   126  of   201
     total cpu time spent up to now is       20.6 secs

     Computing kpt #:   127  of   201
     total cpu time spent up to now is       20.7 secs

     Computing kpt #:   128  of   201
     total cpu time spent up to now is       20.9 secs

     Computing kpt #:   129  of   201
     total cpu time spent up to now is       21.1 secs

     Computing kpt #:   130  of   201
     total cpu time spent up to now is       21.3 secs

     Computing kpt #:   131  of   201
     total cpu time spent up to now is       21.5 secs

     Computing kpt #:   132  of   201
     total cpu time spent up to now is       21.6 secs

     Computing kpt #:   133  of   201
     total cpu time spent up to now is       21.8 secs

     Computing kpt #:   134  of   201
     total cpu time spent up to now is       22.0 secs

     Computing kpt #:   135  of   201
     total cpu time spent up to now is       22.2 secs

     Computing kpt #:   136  of   201
     total cpu time spent up to now is       22.3 secs

     Computing kpt #:   137  of   201
     total cpu time spent up to now is       22.5 secs

     Computing kpt #:   138  of   201
     total cpu time spent up to now is       22.7 secs

     Computing kpt #:   139  of   201
     total cpu time spent up to now is       22.9 secs

     Computing kpt #:   140  of   201
     total cpu time spent up to now is       23.0 secs

     Computing kpt #:   141  of   201
     total cpu time spent up to now is       23.2 secs

     Computing kpt #:   142  of   201
     total cpu time spent up to now is       23.4 secs

     Computing kpt #:   143  of   201
     total cpu time spent up to now is       23.6 secs

     Computing kpt #:   144  of   201
     total cpu time spent up to now is       23.7 secs

     Computing kpt #:   145  of   201
     total cpu time spent up to now is       23.9 secs

     Computing kpt #:   146  of   201
     total cpu time spent up to now is       24.1 secs

     Computing kpt #:   147  of   201
     total cpu time spent up to now is       24.3 secs

     Computing kpt #:   148  of   201
     total cpu time spent up to now is       24.4 secs

     Computing kpt #:   149  of   201
     total cpu time spent up to now is       24.6 secs

     Computing kpt #:   150  of   201
     total cpu time spent up to now is       24.8 secs

     Computing kpt #:   151  of   201
     total cpu time spent up to now is       24.9 secs

     Computing kpt #:   152  of   201
     total cpu time spent up to now is       25.1 secs

     Computing kpt #:   153  of   201
     total cpu time spent up to now is       25.3 secs

     Computing kpt #:   154  of   201
     total cpu time spent up to now is       25.4 secs

     Computing kpt #:   155  of   201
     total cpu time spent up to now is       25.6 secs

     Computing kpt #:   156  of   201
     total cpu time spent up to now is       25.7 secs

     Computing kpt #:   157  of   201
     total cpu time spent up to now is       25.9 secs

     Computing kpt #:   158  of   201
     total cpu time spent up to now is       26.1 secs

     Computing kpt #:   159  of   201
     total cpu time spent up to now is       26.2 secs

     Computing kpt #:   160  of   201
     total cpu time spent up to now is       26.4 secs

     Computing kpt #:   161  of   201
     total cpu time spent up to now is       26.6 secs

     Computing kpt #:   162  of   201
     total cpu time spent up to now is       26.7 secs

     Computing kpt #:   163  of   201
     total cpu time spent up to now is       26.9 secs

     Computing kpt #:   164  of   201
     total cpu time spent up to now is       27.0 secs

     Computing kpt #:   165  of   201
     total cpu time spent up to now is       27.2 secs

     Computing kpt #:   166  of   201
     total cpu time spent up to now is       27.4 secs

     Computing kpt #:   167  of   201
     total cpu time spent up to now is       27.5 secs

     Computing kpt #:   168  of   201
     total cpu time spent up to now is       27.7 secs

     Computing kpt #:   169  of   201
     total cpu time spent up to now is       27.9 secs

     Computing kpt #:   170  of   201
     total cpu time spent up to now is       28.0 secs

     Computing kpt #:   171  of   201
     total cpu time spent up to now is       28.2 secs

     Computing kpt #:   172  of   201
     total cpu time spent up to now is       28.4 secs

     Computing kpt #:   173  of   201
     total cpu time spent up to now is       28.5 secs

     Computing kpt #:   174  of   201
     total cpu time spent up to now is       28.7 secs

     Computing kpt #:   175  of   201
     total cpu time spent up to now is       28.9 secs

     Computing kpt #:   176  of   201
     total cpu time spent up to now is       29.1 secs

     Computing kpt #:   177  of   201
     total cpu time spent up to now is       29.3 secs

     Computing kpt #:   178  of   201
     total cpu time spent up to now is       29.4 secs

     Computing kpt #:   179  of   201
     total cpu time spent up to now is       29.6 secs

     Computing kpt #:   180  of   201
     total cpu time spent up to now is       29.8 secs

     Computing kpt #:   181  of   201
     total cpu time spent up to now is       29.9 secs

     Computing kpt #:   182  of   201
     total cpu time spent up to now is       30.1 secs

     Computing kpt #:   183  of   201
     total cpu time spent up to now is       30.3 secs

     Computing kpt #:   184  of   201
     total cpu time spent up to now is       30.4 secs

     Computing kpt #:   185  of   201
     total cpu time spent up to now is       30.6 secs

     Computing kpt #:   186  of   201
     total cpu time spent up to now is       30.8 secs

     Computing kpt #:   187  of   201
     total cpu time spent up to now is       30.9 secs

     Computing kpt #:   188  of   201
     total cpu time spent up to now is       31.1 secs

     Computing kpt #:   189  of   201
     total cpu time spent up to now is       31.2 secs

     Computing kpt #:   190  of   201
     total cpu time spent up to now is       31.3 secs

     Computing kpt #:   191  of   201
     total cpu time spent up to now is       31.5 secs

     Computing kpt #:   192  of   201
     total cpu time spent up to now is       31.6 secs

     Computing kpt #:   193  of   201
     total cpu time spent up to now is       31.8 secs

     Computing kpt #:   194  of   201
     total cpu time spent up to now is       31.9 secs

     Computing kpt #:   195  of   201
     total cpu time spent up to now is       32.0 secs

     Computing kpt #:   196  of   201
     total cpu time spent up to now is       32.2 secs

     Computing kpt #:   197  of   201
     total cpu time spent up to now is       32.3 secs

     Computing kpt #:   198  of   201
     total cpu time spent up to now is       32.5 secs

     Computing kpt #:   199  of   201
     total cpu time spent up to now is       32.6 secs

     Computing kpt #:   200  of   201
     total cpu time spent up to now is       32.7 secs

     Computing kpt #:   201  of   201
     total cpu time spent up to now is       32.8 secs

     ethr =  1.25E-10,  avg # of iterations = 23.6

     total cpu time spent up to now is       32.8 secs

     End of band structure calculation

          k = 0.0000 0.0000 1.0000 (  1660 PWs)   bands (ev):

    -6.9067  -0.9415   2.2380   2.2380   7.9267   9.1459  18.8088  19.1499
    19.1499  20.0649

          k = 0.0000 0.0000 0.9750 (  1660 PWs)   bands (ev):

    -6.9128  -0.9322   2.2409   2.2409   7.9320   9.1499  18.7891  19.0880
    19.0880  20.0556

          k = 0.0000 0.0000 0.9500 (  1660 PWs)   bands (ev):

    -6.9310  -0.9047   2.2496   2.2496   7.9479   9.1618  18.7308  18.9295
    18.9295  20.0281

          k = 0.0000 0.0000 0.9250 (  1664 PWs)   bands (ev):

    -6.9609  -0.8593   2.2640   2.2640   7.9742   9.1818  18.6360  18.7182
    18.7182  19.9832

          k = 0.0000 0.0000 0.9000 (  1656 PWs)   bands (ev):

    -7.0017  -0.7966   2.2842   2.2842   8.0110   9.2098  18.4817  18.4817
    18.5082  19.9223

          k = 0.0000 0.0000 0.8750 (  1656 PWs)   bands (ev):

    -7.0527  -0.7177   2.3100   2.3100   8.0579   9.2460  18.2328  18.2328
    18.3508  19.8472

          k = 0.0000 0.0000 0.8500 (  1660 PWs)   bands (ev):

    -7.1127  -0.6237   2.3414   2.3414   8.1148   9.2903  17.9783  17.9783
    18.1681  19.7597

          k = 0.0000 0.0000 0.8250 (  1652 PWs)   bands (ev):

    -7.1807  -0.5156   2.3784   2.3784   8.1811   9.3431  17.7217  17.7217
    17.9642  19.6618

          k = 0.0000 0.0000 0.8000 (  1652 PWs)   bands (ev):

    -7.2556  -0.3949   2.4208   2.4208   8.2567   9.4042  17.4647  17.4647
    17.7427  19.5555

          k = 0.0000 0.0000 0.7750 (  1656 PWs)   bands (ev):

    -7.3362  -0.2625   2.4685   2.4685   8.3409   9.4739  17.2085  17.2085
    17.5072  19.4425

          k = 0.0000 0.0000 0.7500 (  1664 PWs)   bands (ev):

    -7.4214  -0.1200   2.5214   2.5214   8.4332   9.5522  16.9539  16.9539
    17.2608  19.3245

          k = 0.0000 0.0000 0.7250 (  1664 PWs)   bands (ev):

    -7.5102   0.0319   2.5794   2.5794   8.5330   9.6393  16.7015  16.7015
    17.0064  19.2031

          k = 0.0000 0.0000 0.7000 (  1672 PWs)   bands (ev):

    -7.6016   0.1918   2.6422   2.6422   8.6396   9.7349  16.4515  16.4515
    16.7467  19.0789

          k = 0.0000 0.0000 0.6750 (  1668 PWs)   bands (ev):

    -7.6947   0.3590   2.7098   2.7098   8.7524   9.8388  16.2043  16.2043
    16.4843  18.9543

          k = 0.0000 0.0000 0.6500 (  1668 PWs)   bands (ev):

    -7.7887   0.5323   2.7819   2.7819   8.8704   9.9506  15.9601  15.9601
    16.2215  18.8296

          k = 0.0000 0.0000 0.6250 (  1668 PWs)   bands (ev):

    -7.8829   0.7110   2.8584   2.8584   8.9931  10.0694  15.7189  15.7189
    15.9609  18.7057

          k = 0.0000 0.0000 0.6000 (  1668 PWs)   bands (ev):

    -7.9767   0.8943   2.9388   2.9388   9.1197  10.1939  15.4812  15.4812
    15.7054  18.5834

          k = 0.0000 0.0000 0.5750 (  1652 PWs)   bands (ev):

    -8.0694   1.0817   3.0232   3.0232   9.2497  10.3223  15.2471  15.2471
    15.4583  18.4637

          k = 0.0000 0.0000 0.5500 (  1656 PWs)   bands (ev):

    -8.1605   1.2722   3.1109   3.1109   9.3822  10.4514  15.0166  15.0166
    15.2232  18.3463

          k = 0.0000 0.0000 0.5250 (  1648 PWs)   bands (ev):

    -8.2497   1.4656   3.2018   3.2018   9.5169  10.5775  14.7903  14.7903
    15.0049  18.2321

          k = 0.0000 0.0000 0.5000 (  1636 PWs)   bands (ev):

    -8.3365   1.6613   3.2954   3.2954   9.6534  10.6955  14.5681  14.5681
    14.8093  18.1216

          k = 0.0000 0.0000 0.4750 (  1636 PWs)   bands (ev):

    -8.4206   1.8587   3.3914   3.3914   9.7910  10.7991  14.3503  14.3503
    14.6425  18.0149

          k = 0.0000 0.0000 0.4500 (  1648 PWs)   bands (ev):

    -8.5016   2.0572   3.4892   3.4892   9.9293  10.8807  14.1373  14.1373
    14.5124  17.9124

          k = 0.0000 0.0000 0.4250 (  1656 PWs)   bands (ev):

    -8.5794   2.2565   3.5885   3.5885  10.0675  10.9331  13.9296  13.9296
    14.4270  17.8143

          k = 0.0000 0.0000 0.4000 (  1656 PWs)   bands (ev):

    -8.6536   2.4561   3.6887   3.6887  10.2043  10.9506  13.7276  13.7276
    14.3925  17.7211

          k = 0.0000 0.0000 0.3750 (  1656 PWs)   bands (ev):

    -8.7241   2.6554   3.7893   3.7893  10.3370  10.9320  13.5318  13.5318
    14.4122  17.6329

          k = 0.0000 0.0000 0.3500 (  1648 PWs)   bands (ev):

    -8.7906   2.8539   3.8896   3.8896  10.4579  10.8854  13.3429  13.3429
    14.4847  17.5500

          k = 0.0000 0.0000 0.3250 (  1655 PWs)   bands (ev):

    -8.8531   3.0507   3.9887   3.9887  10.5383  10.8432  13.1612  13.1612
    14.6051  17.4719

          k = 0.0000 0.0000 0.3000 (  1655 PWs)   bands (ev):

    -8.9114   3.2453   4.0861   4.0861  10.5141  10.8760  12.9876  12.9876
    14.7656  17.3994

          k = 0.0000 0.0000 0.2750 (  1655 PWs)   bands (ev):

    -8.9654   3.4367   4.1808   4.1808  10.4001  10.9753  12.8229  12.8229
    14.9580  17.3323

          k = 0.0000 0.0000 0.2500 (  1667 PWs)   bands (ev):

    -9.0150   3.6235   4.2721   4.2721  10.2505  11.0932  12.6677  12.6677
    15.1740  17.2707

          k = 0.0000 0.0000 0.2250 (  1667 PWs)   bands (ev):

    -9.0600   3.8046   4.3589   4.3589  10.0870  11.2133  12.5233  12.5233
    15.4062  17.2149

          k = 0.0000 0.0000 0.2000 (  1667 PWs)   bands (ev):

    -9.1005   3.9783   4.4404   4.4404   9.9193  11.3299  12.3904  12.3904
    15.6474  17.1647

          k = 0.0000 0.0000 0.1750 (  1663 PWs)   bands (ev):

    -9.1363   4.1426   4.5154   4.5154   9.7541  11.4399  12.2700  12.2700
    15.8907  17.1204

          k = 0.0000 0.0000 0.1500 (  1663 PWs)   bands (ev):

    -9.1675   4.2950   4.5831   4.5831   9.5968  11.5410  12.1630  12.1630
    16.1288  17.0818

          k = 0.0000 0.0000 0.1250 (  1659 PWs)   bands (ev):

    -9.1939   4.4328   4.6424   4.6424   9.4524  11.6310  12.0705  12.0705
    16.3542  17.0491

          k = 0.0000 0.0000 0.1000 (  1659 PWs)   bands (ev):

    -9.2156   4.5525   4.6924   4.6924   9.3255  11.7079  11.9933  11.9933
    16.5578  17.0223

          k = 0.0000 0.0000 0.0750 (  1659 PWs)   bands (ev):

    -9.2325   4.6507   4.7322   4.7322   9.2207  11.7699  11.9323  11.9323
    16.7305  17.0015

          k = 0.0000 0.0000 0.0500 (  1659 PWs)   bands (ev):

    -9.2446   4.7239   4.7612   4.7612   9.1423  11.8155  11.8882  11.8882
    16.8628  16.9865

          k = 0.0000 0.0000 0.0250 (  1659 PWs)   bands (ev):

    -9.2518   4.7693   4.7788   4.7788   9.0936  11.8433  11.8615  11.8615
    16.9461  16.9776

          k = 0.0000 0.0000 0.0000 (  1639 PWs)   bands (ev):

    -9.2542   4.7848   4.7848   4.7848   9.0772  11.8528  11.8528  11.8528
    16.9748  16.9748

          k =-0.0125 0.0125 0.0125 (  1648 PWs)   bands (ev):

    -9.2524   4.7680   4.7830   4.7830   9.0895  11.8515  11.8565  11.8565
    16.9651  16.9651

          k =-0.0250 0.0250 0.0250 (  1654 PWs)   bands (ev):

    -9.2470   4.7187   4.7774   4.7774   9.1257  11.8484  11.8676  11.8676
    16.9369  16.9369

          k =-0.0375 0.0375 0.0375 (  1663 PWs)   bands (ev):

    -9.2379   4.6387   4.7681   4.7681   9.1832  11.8440  11.8860  11.8860
    16.8919  16.8919

          k =-0.0500 0.0500 0.0500 (  1663 PWs)   bands (ev):

    -9.2253   4.5309   4.7555   4.7555   9.2584  11.8399  11.9114  11.9114
    16.8328  16.8328

          k =-0.0625 0.0625 0.0625 (  1663 PWs)   bands (ev):

    -9.2090   4.3989   4.7395   4.7395   9.3467  11.8380  11.9432  11.9432
    16.7626  16.7626

          k =-0.0750 0.0750 0.0750 (  1663 PWs)   bands (ev):

    -9.1892   4.2461   4.7203   4.7203   9.4430  11.8406  11.9809  11.9809
    16.6846  16.6846

          k =-0.0875 0.0875 0.0875 (  1669 PWs)   bands (ev):

    -9.1658   4.0758   4.6982   4.6982   9.5420  11.8505  12.0237  12.0237
    16.6020  16.6020

          k =-0.1000 0.1000 0.1000 (  1672 PWs)   bands (ev):

    -9.1389   3.8912   4.6734   4.6734   9.6385  11.8713  12.0708  12.0708
    16.5179  16.5179

          k =-0.1125 0.1125 0.1125 (  1666 PWs)   bands (ev):

    -9.1086   3.6950   4.6462   4.6462   9.7274  11.9063  12.1212  12.1212
    16.4354  16.4354

          k =-0.1250 0.1250 0.1250 (  1669 PWs)   bands (ev):

    -9.0748   3.4893   4.6168   4.6168   9.8046  11.9583  12.1737  12.1737
    16.3569  16.3569

          k =-0.1375 0.1375 0.1375 (  1672 PWs)   bands (ev):

    -9.0377   3.2762   4.5855   4.5855   9.8667  12.0297  12.2270  12.2270
    16.2850  16.2850

          k =-0.1500 0.1500 0.1500 (  1672 PWs)   bands (ev):

    -8.9972   3.0574   4.5526   4.5526   9.9120  12.1215  12.2798  12.2798
    16.2221  16.2221

          k =-0.1625 0.1625 0.1625 (  1666 PWs)   bands (ev):

    -8.9535   2.8345   4.5185   4.5185   9.9405  12.2331  12.3307  12.3307
    16.1705  16.1705

          k =-0.1750 0.1750 0.1750 (  1666 PWs)   bands (ev):

    -8.9067   2.6084   4.4833   4.4833   9.9531  12.3630  12.3781  12.3781
    16.1320  16.1320

          k =-0.1875 0.1875 0.1875 (  1654 PWs)   bands (ev):

    -8.8568   2.3806   4.4474   4.4474   9.9519  12.4207  12.4207  12.5085
    16.1088  16.1088

          k =-0.2000 0.2000 0.2000 (  1654 PWs)   bands (ev):

    -8.8040   2.1520   4.4110   4.4110   9.9391  12.4572  12.4572  12.6669
    16.1020  16.1020

          k =-0.2125 0.2125 0.2125 (  1657 PWs)   bands (ev):

    -8.7485   1.9234   4.3743   4.3743   9.9173  12.4865  12.4865  12.8351
    16.1131  16.1131

          k =-0.2250 0.2250 0.2250 (  1657 PWs)   bands (ev):

    -8.6903   1.6957   4.3377   4.3377   9.8885  12.5078  12.5078  13.0106
    16.1429  16.1429

          k =-0.2375 0.2375 0.2375 (  1657 PWs)   bands (ev):

    -8.6297   1.4698   4.3013   4.3013   9.8545  12.5209  12.5209  13.1907
    16.1919  16.1919

          k =-0.2500 0.2500 0.2500 (  1654 PWs)   bands (ev):

    -8.5668   1.2465   4.2654   4.2654   9.8171  12.5257  12.5257  13.3729
    16.2601  16.2601

          k =-0.2625 0.2625 0.2625 (  1642 PWs)   bands (ev):

    -8.5020   1.0263   4.2302   4.2302   9.7774  12.5228  12.5228  13.5552
    16.3471  16.3471

          k =-0.2750 0.2750 0.2750 (  1643 PWs)   bands (ev):

    -8.4355   0.8101   4.1958   4.1958   9.7364  12.5126  12.5126  13.7352
    16.4518  16.4518

          k =-0.2875 0.2875 0.2875 (  1643 PWs)   bands (ev):

    -8.3675   0.5986   4.1624   4.1624   9.6951  12.4962  12.4962  13.9110
    16.5734  16.5734

          k =-0.3000 0.3000 0.3000 (  1643 PWs)   bands (ev):

    -8.2985   0.3924   4.1302   4.1302   9.6540  12.4746  12.4746  14.0806
    16.7105  16.7105

          k =-0.3125 0.3125 0.3125 (  1643 PWs)   bands (ev):

    -8.2288   0.1923   4.0993   4.0993   9.6139  12.4490  12.4490  14.2420
    16.8618  16.8618

          k =-0.3250 0.3250 0.3250 (  1637 PWs)   bands (ev):

    -8.1589  -0.0009   4.0698   4.0698   9.5750  12.4204  12.4204  14.3935
    17.0260  17.0260

          k =-0.3375 0.3375 0.3375 (  1634 PWs)   bands (ev):

    -8.0892  -0.1864   4.0419   4.0419   9.5378  12.3898  12.3898  14.5334
    17.2016  17.2016

          k =-0.3500 0.3500 0.3500 (  1640 PWs)   bands (ev):

    -8.0205  -0.3636   4.0157   4.0157   9.5025  12.3583  12.3583  14.6603
    17.3869  17.3869

          k =-0.3625 0.3625 0.3625 (  1655 PWs)   bands (ev):

    -7.9531  -0.5315   3.9911   3.9911   9.4694  12.3264  12.3264  14.7735
    17.5805  17.5805

          k =-0.3750 0.3750 0.3750 (  1655 PWs)   bands (ev):

    -7.8878  -0.6892   3.9685   3.9685   9.4387  12.2952  12.2952  14.8725
    17.7811  17.7811

          k =-0.3875 0.3875 0.3875 (  1655 PWs)   bands (ev):

    -7.8253  -0.8359   3.9478   3.9478   9.4105  12.2654  12.2654  14.9574
    17.9867  17.9867

          k =-0.4000 0.4000 0.4000 (  1667 PWs)   bands (ev):

    -7.7664  -0.9706   3.9291   3.9291   9.3850  12.2372  12.2372  15.0288
    18.1949  18.1949

          k =-0.4125 0.4125 0.4125 (  1667 PWs)   bands (ev):

    -7.7119  -1.0923   3.9125   3.9125   9.3624  12.2115  12.2115  15.0878
    18.4036  18.4036

          k =-0.4250 0.4250 0.4250 (  1673 PWs)   bands (ev):

    -7.6624  -1.2003   3.8980   3.8980   9.3425  12.1884  12.1884  15.1352
    18.6090  18.6090

          k =-0.4375 0.4375 0.4375 (  1673 PWs)   bands (ev):

    -7.6190  -1.2935   3.8857   3.8857   9.3257  12.1684  12.1684  15.1728
    18.8070  18.8070

          k =-0.4500 0.4500 0.4500 (  1673 PWs)   bands (ev):

    -7.5822  -1.3711   3.8755   3.8755   9.3118  12.1516  12.1516  15.2016
    18.9912  18.9912

          k =-0.4625 0.4625 0.4625 (  1679 PWs)   bands (ev):

    -7.5528  -1.4323   3.8676   3.8676   9.3010  12.1383  12.1383  15.2227
    19.1532  19.1532

          k =-0.4750 0.4750 0.4750 (  1676 PWs)   bands (ev):

    -7.5313  -1.4765   3.8619   3.8619   9.2932  12.1288  12.1288  15.2371
    19.2827  19.2827

          k =-0.4875 0.4875 0.4875 (  1676 PWs)   bands (ev):

    -7.5182  -1.5032   3.8585   3.8585   9.2886  12.1230  12.1230  15.2454
    19.3674  19.3674

          k =-0.5000 0.5000 0.5000 (  1676 PWs)   bands (ev):

    -7.5139  -1.5122   3.8574   3.8574   9.2870  12.1211  12.1211  15.2482
    19.3970  19.3970

          k =-0.5000 0.4875 0.5125 (  1676 PWs)   bands (ev):

    -7.5130  -1.5108   3.8488   3.8554   9.2956  12.1136  12.1259  15.2538
    19.2853  19.3916

          k =-0.5000 0.4750 0.5250 (  1676 PWs)   bands (ev):

    -7.5103  -1.5067   3.8232   3.8495   9.3211  12.0916  12.1405  15.2703
    19.1673  19.3755

          k =-0.5000 0.4625 0.5375 (  1670 PWs)   bands (ev):

    -7.5059  -1.4998   3.7815   3.8395   9.3628  12.0562  12.1651  15.2958
    19.0543  19.3488

          k =-0.5000 0.4500 0.5500 (  1670 PWs)   bands (ev):

    -7.4997  -1.4902   3.7244   3.8256   9.4193  12.0089  12.1996  15.3277
    18.9481  19.3119

          k =-0.5000 0.4375 0.5625 (  1668 PWs)   bands (ev):

    -7.4918  -1.4780   3.6532   3.8078   9.4892  11.9516  12.2443  15.3626
    18.8503  19.2658

          k =-0.5000 0.4250 0.5750 (  1664 PWs)   bands (ev):

    -7.4822  -1.4630   3.5696   3.7859   9.5706  11.8864  12.2995  15.3967
    18.7619  19.2121

          k =-0.5000 0.4125 0.5875 (  1664 PWs)   bands (ev):

    -7.4709  -1.4453   3.4749   3.7600   9.6616  11.8153  12.3656  15.4260
    18.6827  19.1537

          k =-0.5000 0.4000 0.6000 (  1664 PWs)   bands (ev):

    -7.4580  -1.4251   3.3710   3.7299   9.7602  11.7404  12.4427  15.4468
    18.6107  19.0956

          k =-0.5000 0.3875 0.6125 (  1664 PWs)   bands (ev):

    -7.4436  -1.4022   3.2591   3.6959   9.8643  11.6634  12.5310  15.4560
    18.5412  19.0452

          k =-0.5000 0.3750 0.6250 (  1656 PWs)   bands (ev):

    -7.4275  -1.3767   3.1410   3.6577   9.9723  11.5862  12.6307  15.4514
    18.4673  19.0116

          k =-0.5000 0.3625 0.6375 (  1660 PWs)   bands (ev):

    -7.4101  -1.3488   3.0178   3.6155  10.0821  11.5100  12.7418  15.4315
    18.3821  19.0024

          k =-0.5000 0.3500 0.6500 (  1658 PWs)   bands (ev):

    -7.3912  -1.3185   2.8909   3.5692  10.1924  11.4365  12.8640  15.3964
    18.2827  19.0210

          k =-0.5000 0.3375 0.6625 (  1660 PWs)   bands (ev):

    -7.3711  -1.2858   2.7615   3.5189  10.3014  11.3670  12.9966  15.3470
    18.1702  19.0658

          k =-0.5000 0.3250 0.6750 (  1660 PWs)   bands (ev):

    -7.3497  -1.2508   2.6305   3.4647  10.4077  11.3031  13.1391  15.2849
    18.0475  19.1327

          k =-0.5000 0.3125 0.6875 (  1664 PWs)   bands (ev):

    -7.3272  -1.2136   2.4991   3.4065  10.5093  11.2468  13.2899  15.2126
    17.9179  19.2165

          k =-0.5000 0.3000 0.7000 (  1664 PWs)   bands (ev):

    -7.3036  -1.1744   2.3680   3.3446  10.6032  11.2013  13.4473  15.1328
    17.7843  19.3127

          k =-0.5000 0.2875 0.7125 (  1666 PWs)   bands (ev):

    -7.2791  -1.1333   2.2381   3.2790  10.6848  11.1714  13.6082  15.0487
    17.6496  19.4170

          k =-0.5000 0.2750 0.7250 (  1666 PWs)   bands (ev):

    -7.2538  -1.0905   2.1103   3.2099  10.7466  11.1651  13.7681  14.9649
    17.5163  19.5256

          k =-0.5000 0.2625 0.7375 (  1660 PWs)   bands (ev):

    -7.2278  -1.0460   1.9852   3.1374  10.7817  11.1895  13.9198  14.8880
    17.3874  19.6355

          k =-0.5000 0.2500 0.7500 (  1644 PWs)   bands (ev):

    -7.2013  -1.0002   1.8637   3.0619  10.7918  11.2434  14.0498  14.8296
    17.2663  19.7440

          k =-0.5000 0.2375 0.7625 (  1652 PWs)   bands (ev):

    -7.1744  -0.9534   1.7463   2.9833  10.7861  11.3174  14.1368  14.8072
    17.1569  19.8488

          k =-0.5000 0.2250 0.7750 (  1652 PWs)   bands (ev):

    -7.1472  -0.9058   1.6339   2.9020  10.7737  11.4031  14.1617  14.8358
    17.0652  19.9487

          k =-0.5000 0.2125 0.7875 (  1654 PWs)   bands (ev):

    -7.1200  -0.8578   1.5272   2.8182  10.7598  11.4953  14.1299  14.9032
    16.9983  20.0423

          k =-0.5000 0.2000 0.8000 (  1656 PWs)   bands (ev):

    -7.0928  -0.8099   1.4270   2.7322  10.7471  11.5913  14.0638  14.9790
    16.9650  20.1288

          k =-0.5000 0.1875 0.8125 (  1656 PWs)   bands (ev):

    -7.0660  -0.7625   1.3340   2.6444  10.7369  11.6897  13.9809  15.0373
    16.9740  20.2074

          k =-0.5000 0.1750 0.8250 (  1656 PWs)   bands (ev):

    -7.0396  -0.7162   1.2492   2.5550  10.7299  11.7899  13.8908  15.0636
    17.0307  20.2774

          k =-0.5000 0.1625 0.8375 (  1660 PWs)   bands (ev):

    -7.0139  -0.6718   1.1733   2.4644  10.7261  11.8913  13.7986  15.0532
    17.1346  20.3382

          k =-0.5000 0.1500 0.8500 (  1658 PWs)   bands (ev):

    -6.9890  -0.6298   1.1073   2.3730  10.7256  11.9937  13.7074  15.0096
    17.2798  20.3889

          k =-0.5000 0.1375 0.8625 (  1660 PWs)   bands (ev):

    -6.9651  -0.5911   1.0521   2.2811  10.7280  12.0965  13.6192  14.9397
    17.4575  20.4288

          k =-0.5000 0.1250 0.8750 (  1656 PWs)   bands (ev):

    -6.9425  -0.5563   1.0084   2.1892  10.7331  12.1994  13.5359  14.8506
    17.6591  20.4570

          k =-0.5000 0.1125 0.8875 (  1658 PWs)   bands (ev):

    -6.9213  -0.5260   0.9767   2.0978  10.7404  12.3015  13.4588  14.7485
    17.8773  20.4724

          k =-0.5000 0.1000 0.9000 (  1654 PWs)   bands (ev):

    -6.9018  -0.5007   0.9575   2.0074  10.7493  12.4019  13.3900  14.6380
    18.1063  20.4742

          k =-0.5000 0.0875 0.9125 (  1654 PWs)   bands (ev):

    -6.8840  -0.4803   0.9504   1.9187  10.7594  12.4987  13.3315  14.5227
    18.3413  20.4615

          k =-0.5000 0.0750 0.9250 (  1652 PWs)   bands (ev):

    -6.8683  -0.4648   0.9549   1.8326  10.7699  12.5890  13.2865  14.4054
    18.5782  20.4329

          k =-0.5000 0.0625 0.9375 (  1650 PWs)   bands (ev):

    -6.8547  -0.4536   0.9696   1.7501  10.7802  12.6687  13.2589  14.2889
    18.8135  20.3875

          k =-0.5000 0.0500 0.9500 (  1650 PWs)   bands (ev):

    -6.8433  -0.4460   0.9926   1.6728  10.7898  12.7323  13.2530  14.1759
    19.0432  20.3235

          k =-0.5000 0.0375 0.9625 (  1644 PWs)   bands (ev):

    -6.8344  -0.4411   1.0208   1.6033  10.7979  12.7760  13.2703  14.0705
    19.2637  20.2399

          k =-0.5000 0.0250 0.9750 (  1648 PWs)   bands (ev):

    -6.8279  -0.4384   1.0495   1.5454  10.8041  12.8007  13.3043  13.9792
    19.4703  20.1356

          k =-0.5000 0.0125 0.9875 (  1648 PWs)   bands (ev):

    -6.8240  -0.4369   1.0722   1.5055  10.8081  12.8120  13.3392  13.9132
    19.6560  20.0133

          k =-0.5000 0.0000 1.0000 (  1648 PWs)   bands (ev):

    -6.8227  -0.4365   1.0811   1.4909  10.8094  12.8151  13.3545  13.8882
    19.7727  19.9181

          k =-0.5062 0.0000 0.9937 (  1648 PWs)   bands (ev):

    -6.8229  -0.4369   1.0804   1.4931  10.8071  12.8039  13.3639  13.8936
    19.7514  19.9365

          k =-0.5125 0.0000 0.9875 (  1648 PWs)   bands (ev):

    -6.8235  -0.4380   1.0781   1.4997  10.7999  12.7726  13.3916  13.9085
    19.7049  19.9738

          k =-0.5188 0.0000 0.9813 (  1645 PWs)   bands (ev):

    -6.8244  -0.4397   1.0740   1.5110  10.7877  12.7269  13.4339  13.9314
    19.6492  20.0134

          k =-0.5250 0.0000 0.9750 (  1643 PWs)   bands (ev):

    -6.8256  -0.4421   1.0681   1.5268  10.7701  12.6726  13.4863  13.9609
    19.5893  20.0493

          k =-0.5312 0.0000 0.9688 (  1643 PWs)   bands (ev):

    -6.8271  -0.4451   1.0606   1.5468  10.7471  12.6142  13.5453  13.9963
    19.5270  20.0789

          k =-0.5375 0.0000 0.9625 (  1641 PWs)   bands (ev):

    -6.8289  -0.4487   1.0515   1.5709  10.7185  12.5548  13.6085  14.0370
    19.4629  20.1007

          k =-0.5437 0.0000 0.9562 (  1641 PWs)   bands (ev):

    -6.8309  -0.4529   1.0411   1.5986  10.6844  12.4964  13.6745  14.0823
    19.3974  20.1132

          k =-0.5500 0.0000 0.9500 (  1643 PWs)   bands (ev):

    -6.8331  -0.4575   1.0298   1.6295  10.6447  12.4403  13.7423  14.1321
    19.3309  20.1157

          k =-0.5563 0.0000 0.9438 (  1645 PWs)   bands (ev):

    -6.8355  -0.4625   1.0177   1.6633  10.5998  12.3874  13.8114  14.1858
    19.2634  20.1075

          k =-0.5625 0.0000 0.9375 (  1649 PWs)   bands (ev):

    -6.8381  -0.4679   1.0050   1.6995  10.5499  12.3379  13.8811  14.2432
    19.1951  20.0886

          k =-0.5687 0.0000 0.9312 (  1649 PWs)   bands (ev):

    -6.8409  -0.4736   0.9919   1.7380  10.4954  12.2922  13.9515  14.3041
    19.1262  20.0593

          k =-0.5750 0.0000 0.9250 (  1653 PWs)   bands (ev):

    -6.8438  -0.4795   0.9786   1.7782  10.4367  12.2503  14.0222  14.3680
    19.0567  20.0201

          k =-0.5813 0.0000 0.9188 (  1653 PWs)   bands (ev):

    -6.8467  -0.4857   0.9653   1.8201  10.3744  12.2120  14.0933  14.4347
    18.9868  19.9721

          k =-0.5875 0.0000 0.9125 (  1653 PWs)   bands (ev):

    -6.8498  -0.4920   0.9520   1.8633  10.3090  12.1772  14.1648  14.5038
    18.9165  19.9163

          k =-0.5938 0.0000 0.9062 (  1653 PWs)   bands (ev):

    -6.8529  -0.4984   0.9388   1.9075  10.2411  12.1456  14.2365  14.5751
    18.8459  19.8537

          k =-0.6000 0.0000 0.9000 (  1653 PWs)   bands (ev):

    -6.8560  -0.5048   0.9258   1.9525  10.1713  12.1170  14.3085  14.6481
    18.7751  19.7853

          k =-0.6062 0.0000 0.8937 (  1654 PWs)   bands (ev):

    -6.8592  -0.5113   0.9130   1.9980  10.1000  12.0910  14.3808  14.7226
    18.7043  19.7120

          k =-0.6125 0.0000 0.8875 (  1650 PWs)   bands (ev):

    -6.8624  -0.5177   0.9006   2.0440  10.0280  12.0675  14.4534  14.7984
    18.6336  19.6348

          k =-0.6188 0.0000 0.8813 (  1652 PWs)   bands (ev):

    -6.8655  -0.5241   0.8885   2.0899   9.9555  12.0461  14.5262  14.8749
    18.5630  19.5543

          k =-0.6250 0.0000 0.8750 (  1652 PWs)   bands (ev):

    -6.8686  -0.5304   0.8768   2.1358   9.8833  12.0268  14.5993  14.9521
    18.4926  19.4711

          k =-0.6312 0.0000 0.8687 (  1652 PWs)   bands (ev):

    -6.8717  -0.5366   0.8656   2.1813   9.8116  12.0092  14.6725  15.0296
    18.4228  19.3858

          k =-0.6375 0.0000 0.8625 (  1652 PWs)   bands (ev):

    -6.8747  -0.5426   0.8548   2.2263   9.7409  11.9932  14.7457  15.1071
    18.3536  19.2990

          k =-0.6438 0.0000 0.8563 (  1656 PWs)   bands (ev):

    -6.8776  -0.5484   0.8445   2.2705   9.6717  11.9786  14.8188  15.1843
    18.2852  19.2111

          k =-0.6500 0.0000 0.8500 (  1654 PWs)   bands (ev):

    -6.8804  -0.5540   0.8347   2.3137   9.6043  11.9654  14.8918  15.2610
    18.2180  19.1225

          k =-0.6562 0.0000 0.8438 (  1654 PWs)   bands (ev):

    -6.8832  -0.5594   0.8254   2.3558   9.5390  11.9533  14.9644  15.3367
    18.1521  19.0338

          k =-0.6625 0.0000 0.8375 (  1654 PWs)   bands (ev):

    -6.8858  -0.5645   0.8166   2.3964   9.4763  11.9423  15.0364  15.4111
    18.0878  18.9452

          k =-0.6687 0.0000 0.8312 (  1653 PWs)   bands (ev):

    -6.8883  -0.5693   0.8084   2.4353   9.4163  11.9324  15.1076  15.4837
    18.0257  18.8572

          k =-0.6750 0.0000 0.8250 (  1659 PWs)   bands (ev):

    -6.8906  -0.5739   0.8008   2.4725   9.3595  11.9233  15.1778  15.5540
    17.9660  18.7701

          k =-0.6813 0.0000 0.8188 (  1659 PWs)   bands (ev):

    -6.8928  -0.5781   0.7937   2.5075   9.3060  11.9152  15.2466  15.6215
    17.9093  18.6846

          k =-0.6875 0.0000 0.8125 (  1659 PWs)   bands (ev):

    -6.8948  -0.5820   0.7872   2.5404   9.2563  11.9079  15.3138  15.6856
    17.8561  18.6010

          k =-0.6937 0.0000 0.8062 (  1660 PWs)   bands (ev):

    -6.8967  -0.5855   0.7814   2.5707   9.2104  11.9014  15.3787  15.7455
    17.8071  18.5200

          k =-0.7000 0.0000 0.8000 (  1660 PWs)   bands (ev):

    -6.8983  -0.5888   0.7761   2.5985   9.1687  11.8957  15.4410  15.8006
    17.7627  18.4422

          k =-0.7063 0.0000 0.7938 (  1660 PWs)   bands (ev):

    -6.8998  -0.5916   0.7714   2.6235   9.1314  11.8907  15.4999  15.8501
    17.7238  18.3685

          k =-0.7125 0.0000 0.7875 (  1662 PWs)   bands (ev):

    -6.9012  -0.5941   0.7674   2.6454   9.0986  11.8864  15.5547  15.8933
    17.6907  18.2997

          k =-0.7188 0.0000 0.7812 (  1662 PWs)   bands (ev):

    -6.9023  -0.5963   0.7639   2.6643   9.0706  11.8828  15.6045  15.9296
    17.6639  18.2372

          k =-0.7250 0.0000 0.7750 (  1662 PWs)   bands (ev):

    -6.9032  -0.5980   0.7611   2.6799   9.0474  11.8798  15.6481  15.9587
    17.6434  18.1823

          k =-0.7312 0.0000 0.7687 (  1666 PWs)   bands (ev):

    -6.9039  -0.5994   0.7589   2.6921   9.0292  11.8775  15.6843  15.9806
    17.6288  18.1367

          k =-0.7375 0.0000 0.7625 (  1666 PWs)   bands (ev):

    -6.9044  -0.6004   0.7573   2.7009   9.0162  11.8759  15.7116  15.9956
    17.6195  18.1022

          k =-0.7438 0.0000 0.7563 (  1666 PWs)   bands (ev):

    -6.9047  -0.6009   0.7564   2.7063   9.0083  11.8750  15.7287  16.0042
    17.6145  18.0806

          k =-0.7500 0.0000 0.7500 (  1666 PWs)   bands (ev):

    -6.9048  -0.6011   0.7561   2.7080   9.0057  11.8747  15.7345  16.0070
    17.6129  18.0732

          k =-0.7312 0.0000 0.7312 (  1666 PWs)   bands (ev):

    -6.9212  -0.5729   0.6872   2.7763   9.1107  12.1879  15.4989  15.7785
    17.4796  17.8584

          k =-0.7125 0.0000 0.7125 (  1658 PWs)   bands (ev):

    -6.9430  -0.5505   0.6449   2.8480   9.2199  12.4833  15.2682  15.5583
    17.3791  17.6430

          k =-0.6937 0.0000 0.6937 (  1662 PWs)   bands (ev):

    -6.9710  -0.5339   0.6302   2.9228   9.3336  12.7503  15.0423  15.3465
    17.3209  17.4282

          k =-0.6750 0.0000 0.6750 (  1662 PWs)   bands (ev):

    -7.0054  -0.5210   0.6426   3.0004   9.4517  12.9786  14.8218  15.1434
    17.2152  17.3155

          k =-0.6562 0.0000 0.6562 (  1668 PWs)   bands (ev):

    -7.0466  -0.5089   0.6796   3.0803   9.5740  13.1580  14.6068  14.9492
    17.0051  17.3721

          k =-0.6375 0.0000 0.6375 (  1666 PWs)   bands (ev):

    -7.0947  -0.4938   0.7383   3.1623   9.7005  13.2829  14.3975  14.7643
    16.7988  17.4964

          k =-0.6188 0.0000 0.6188 (  1654 PWs)   bands (ev):

    -7.1497  -0.4720   0.8151   3.2460   9.8308  13.3523  14.1942  14.5885
    16.5974  17.6889

          k =-0.6000 0.0000 0.6000 (  1650 PWs)   bands (ev):

    -7.2113  -0.4407   0.9072   3.3307   9.9641  13.3716  13.9967  14.4220
    16.4017  17.9436

          k =-0.5813 0.0000 0.5813 (  1646 PWs)   bands (ev):

    -7.2793  -0.3978   1.0120   3.4162  10.1000  13.3497  13.8048  14.2647
    16.2129  18.2510

          k =-0.5625 0.0000 0.5625 (  1646 PWs)   bands (ev):

    -7.3530  -0.3417   1.1277   3.5020  10.2374  13.2970  13.6186  14.1162
    16.0317  18.5998

          k =-0.5437 0.0000 0.5437 (  1646 PWs)   bands (ev):

    -7.4318  -0.2716   1.2526   3.5875  10.3753  13.2235  13.4380  13.9764
    15.8595  18.9788

          k =-0.5250 0.0000 0.5250 (  1654 PWs)   bands (ev):

    -7.5151  -0.1872   1.3854   3.6723  10.5119  13.1376  13.2632  13.8450
    15.6972  19.3766

          k =-0.5062 0.0000 0.5062 (  1658 PWs)   bands (ev):

    -7.6020  -0.0885   1.5252   3.7559  10.6453  13.0451  13.0958  13.7213
    15.5464  19.7818

          k =-0.4875 0.0000 0.4875 (  1658 PWs)   bands (ev):

    -7.6918   0.0243   1.6711   3.8380  10.7726  12.9215  12.9671  13.6046
    15.4082  20.1802

          k =-0.4688 0.0000 0.4688 (  1654 PWs)   bands (ev):

    -7.7836   0.1507   1.8222   3.9180  10.8903  12.7662  12.8841  13.4942
    15.2843  20.5460

          k =-0.4500 0.0000 0.4500 (  1652 PWs)   bands (ev):

    -7.8767   0.2901   1.9778   3.9955  10.9937  12.6147  12.8170  13.3891
    15.1761  20.2601

          k =-0.4312 0.0000 0.4313 (  1654 PWs)   bands (ev):

    -7.9703   0.4420   2.1369   4.0701  11.0774  12.4704  12.7689  13.2881
    15.0849  19.8527

          k =-0.4125 0.0000 0.4125 (  1652 PWs)   bands (ev):

    -8.0638   0.6057   2.2990   4.1414  11.1361  12.3348  12.7436  13.1904
    15.0122  19.4518

          k =-0.3937 0.0000 0.3937 (  1652 PWs)   bands (ev):

    -8.1564   0.7804   2.4632   4.2092  11.1655  12.2094  12.7429  13.0951
    14.9592  19.0613

          k =-0.3750 0.0000 0.3750 (  1652 PWs)   bands (ev):

    -8.2475   0.9653   2.6287   4.2732  11.1639  12.0956  12.7654  13.0017
    14.9267  18.6848

          k =-0.3562 0.0000 0.3562 (  1652 PWs)   bands (ev):

    -8.3367   1.1598   2.7945   4.3331  11.1328  11.9950  12.8058  12.9096
    14.9152  18.3267

          k =-0.3375 0.0000 0.3375 (  1646 PWs)   bands (ev):

    -8.4235   1.3630   2.9599   4.3889  11.0763  11.9083  12.8189  12.8560
    14.9249  17.9911

          k =-0.3187 0.0000 0.3187 (  1646 PWs)   bands (ev):

    -8.5073   1.5741   3.1239   4.4404  10.9992  11.8354  12.7296  12.9065
    14.9554  17.6833

          k =-0.3000 0.0000 0.3000 (  1646 PWs)   bands (ev):

    -8.5879   1.7922   3.2855   4.4877  10.9064  11.7760  12.6421  12.9481
    15.0062  17.4087

          k =-0.2812 0.0000 0.2812 (  1660 PWs)   bands (ev):

    -8.6648   2.0163   3.4436   4.5305  10.8019  11.7293  12.5567  12.9721
    15.0761  17.1732

          k =-0.2625 0.0000 0.2625 (  1652 PWs)   bands (ev):

    -8.7379   2.2456   3.5974   4.5694  10.6886  11.6947  12.4744  12.9716
    15.1648  16.9815

          k =-0.2437 0.0000 0.2437 (  1650 PWs)   bands (ev):

    -8.8067   2.4789   3.7457   4.6042  10.5683  11.6712  12.3953  12.9421
    15.2705  16.8365

          k =-0.2250 0.0000 0.2250 (  1663 PWs)   bands (ev):

    -8.8712   2.7147   3.8873   4.6352  10.4424  11.6580  12.3200  12.8827
    15.3916  16.7382

          k =-0.2062 0.0000 0.2062 (  1659 PWs)   bands (ev):

    -8.9311   2.9519   4.0215   4.6626  10.3113  11.6545  12.2492  12.7962
    15.5270  16.6832

          k =-0.1875 0.0000 0.1875 (  1663 PWs)   bands (ev):

    -8.9863   3.1886   4.1472   4.6864  10.1757  11.6597  12.1832  12.6885
    15.6744  16.6651

          k =-0.1687 0.0000 0.1687 (  1663 PWs)   bands (ev):

    -9.0365   3.4227   4.2635   4.7072  10.0359  11.6726  12.1224  12.5676
    15.8318  16.6757

          k =-0.1500 0.0000 0.1500 (  1667 PWs)   bands (ev):

    -9.0818   3.6515   4.3695   4.7249   9.8930  11.6918  12.0672  12.4414
    15.9963  16.7065

          k =-0.1312 0.0000 0.1312 (  1667 PWs)   bands (ev):

    -9.1219   3.8722   4.4647   4.7400   9.7488  11.7157  12.0178  12.3174
    16.1649  16.7494

          k =-0.1125 0.0000 0.1125 (  1665 PWs)   bands (ev):

    -9.1568   4.0810   4.5483   4.7525   9.6061  11.7424  11.9746  12.2016
    16.3336  16.7978

          k =-0.0938 0.0000 0.0938 (  1661 PWs)   bands (ev):

    -9.1865   4.2734   4.6198   4.7627   9.4689  11.7699  11.9377  12.0987
    16.4969  16.8459

          k =-0.0750 0.0000 0.0750 (  1661 PWs)   bands (ev):

    -9.2108   4.4438   4.6788   4.7709   9.3427  11.7962  11.9072  12.0116
    16.6485  16.8895

          k =-0.0562 0.0000 0.0562 (  1657 PWs)   bands (ev):

    -9.2298   4.5862   4.7250   4.7771   9.2339  11.8193  11.8835  11.9427
    16.7807  16.9257

          k =-0.0375 0.0000 0.0375 (  1657 PWs)   bands (ev):

    -9.2434   4.6940   4.7581   4.7814   9.1494  11.8372  11.8664  11.8928
    16.8846  16.9526

          k =-0.0187 0.0000 0.0187 (  1655 PWs)   bands (ev):

    -9.2515   4.7616   4.7780   4.7839   9.0956  11.8487  11.8562  11.8628
    16.9514  16.9691

          k = 0.0000 0.0000 0.0000 (  1639 PWs)   bands (ev):

    -9.2542   4.7848   4.7848   4.7848   9.0772  11.8528  11.8528  11.8528
    16.9748  16.9748

     Writing all to output data dir ./SCRATCH/zns.save/

     init_run     :      0.14s CPU      0.16s WALL (       1 calls)
     electrons    :     32.19s CPU     32.65s WALL (       1 calls)

     Called by init_run:
     wfcinit      :      0.00s CPU      0.00s WALL (       1 calls)
     wfcinit:atom :      0.12s CPU      0.07s WALL (     201 calls)
     wfcinit:wfcr :      2.69s CPU      2.73s WALL (     201 calls)
     potinit      :      0.00s CPU      0.01s WALL (       1 calls)
     hinit0       :      0.11s CPU      0.12s WALL (       1 calls)

     Called by electrons:
     c_bands      :     32.19s CPU     32.64s WALL (       1 calls)
     v_of_rho     :      0.00s CPU      0.00s WALL (       1 calls)
     v_h          :      0.00s CPU      0.00s WALL (       1 calls)
     v_xc         :      0.00s CPU      0.00s WALL (       1 calls)

     Called by c_bands:
     init_us_2    :      0.06s CPU      0.06s WALL (     201 calls)
     init_us_2:cp :      0.06s CPU      0.06s WALL (     201 calls)
     cegterg      :     29.06s CPU     29.42s WALL (     328 calls)

     Called by sum_band:

     Called by *egterg:
     cdiaghg      :      0.45s CPU      0.43s WALL (    4940 calls)
     cegterg:over :      2.17s CPU      2.06s WALL (    4739 calls)
     cegterg:upda :      0.92s CPU      0.93s WALL (    4739 calls)
     cegterg:last :      1.55s CPU      1.71s WALL (    3515 calls)
     h_psi        :     25.89s CPU     26.23s WALL (    5268 calls)
     g_psi        :      0.16s CPU      0.15s WALL (    4739 calls)

     Called by h_psi:
     h_psi:calbec :      1.30s CPU      1.30s WALL (    5268 calls)
     vloc_psi     :     23.50s CPU     23.87s WALL (    5268 calls)
     add_vuspsi   :      0.98s CPU      0.94s WALL (    5268 calls)

     General routines
     calbec       :      1.30s CPU      1.28s WALL (    5268 calls)
     fft          :      0.00s CPU      0.00s WALL (       3 calls)
     fftw         :     21.27s CPU     21.53s WALL (   77770 calls)
     davcio       :      0.00s CPU      0.03s WALL (     402 calls)


     PWSCF        :     32.38s CPU     32.97s WALL


   This run was terminated on:  17:55: 4  30May2024            

=------------------------------------------------------------------------------=
   JOB DONE.
=------------------------------------------------------------------------------=
