
     Program PWSCF v.7.2 starts on  9Jun2024 at  9:25:15 

     This program is part of the open-source Quantum ESPRESSO suite
     for quantum simulation of materials; please cite
         "P. Giannozzi et al., J. Phys.:Condens. Matter 21 395502 (2009);
         "P. Giannozzi et al., J. Phys.:Condens. Matter 29 465901 (2017);
         "P. Giannozzi et al., J. Chem. Phys. 152 154105 (2020);
          URL http://www.quantum-espresso.org", 
     in publications or presentations arising from this work. More details at
     http://www.quantum-espresso.org/quote

     Serial version
     9989 MiB available memory on the printing compute node when the environment starts

     Waiting for input...
     Reading input from standard input

     Current dimensions of program PWSCF are:
     Max number of different atomic species (ntypx) = 10
     Max number of k-points (npk) =  40000
     Max angular momentum in pseudopotentials (lmaxx) =  4

     Atomic positions and unit cell read from directory:
     ./SCRATCH/zns.save/



     G-vector sticks info
     --------------------
     sticks:   dense  smooth     PW     G-vecs:    dense   smooth      PW
     Sum         871     871    265                16961    16961    2891

     Using Slab Decomposition



     bravais-lattice index     =            2
     lattice parameter (alat)  =      10.2847  a.u.
     unit-cell volume          =     271.9678 (a.u.)^3
     number of atoms/cell      =            2
     number of atomic types    =            2
     number of electrons       =        26.00
     number of Kohn-Sham states=           17
     kinetic-energy cutoff     =      60.0000  Ry
     charge density cutoff     =     240.0000  Ry
     Exchange-correlation= PBE
                           (   1   4   3   4   0   0   0)

     celldm(1)=  10.284720  celldm(2)=   0.000000  celldm(3)=   0.000000
     celldm(4)=   0.000000  celldm(5)=   0.000000  celldm(6)=   0.000000

     crystal axes: (cart. coord. in units of alat)
               a(1) = (  -0.500000   0.000000   0.500000 )  
               a(2) = (   0.000000   0.500000   0.500000 )  
               a(3) = (  -0.500000   0.500000   0.000000 )  

     reciprocal axes: (cart. coord. in units 2 pi/alat)
               b(1) = ( -1.000000 -1.000000  1.000000 )  
               b(2) = (  1.000000  1.000000  1.000000 )  
               b(3) = ( -1.000000  1.000000 -1.000000 )  


     PseudoPot. # 1 for Zn read from file:
     /home/paolo/project_labqsm/pseudopotentials/Zn_ONCV_PBE-1.2.upf
     MD5 check sum: 732f41c0cd6489a4b50a33b4ec99a2d3
     Pseudo is Norm-conserving, Zval = 20.0
     Generated using ONCVPSP code by D. R. Hamann
     Using radial grid of  602 points,  6 beta functions with: 
                l(1) =   0
                l(2) =   0
                l(3) =   1
                l(4) =   1
                l(5) =   2
                l(6) =   2

     PseudoPot. # 2 for S  read from file:
     /home/paolo/project_labqsm/pseudopotentials/S_ONCV_PBE-1.2.upf
     MD5 check sum: f9d020296ee6110346977bfd66d424f6
     Pseudo is Norm-conserving, Zval =  6.0
     Generated using ONCVPSP code by D. R. Hamann
     Using radial grid of  602 points,  4 beta functions with: 
                l(1) =   0
                l(2) =   0
                l(3) =   1
                l(4) =   1

     atomic species   valence    mass     pseudopotential
        Zn            20.00    65.38000     Zn( 1.00)
        S              6.00    32.06000     S ( 1.00)

     24 Sym. Ops. (no inversion) found


                                    s                        frac. trans.

      isym =  1     identity                                     

 cryst.   s( 1) = (     1          0          0      )
                  (     0          1          0      )
                  (     0          0          1      )

 cart.    s( 1) = (  1.0000000  0.0000000  0.0000000 )
                  (  0.0000000  1.0000000  0.0000000 )
                  (  0.0000000  0.0000000  1.0000000 )


      isym =  2     180 deg rotation - cart. axis [0,0,1]        

 cryst.   s( 2) = (     0          1         -1      )
                  (     1          0         -1      )
                  (     0          0         -1      )

 cart.    s( 2) = ( -1.0000000  0.0000000  0.0000000 )
                  (  0.0000000 -1.0000000  0.0000000 )
                  (  0.0000000  0.0000000  1.0000000 )


      isym =  3     180 deg rotation - cart. axis [0,1,0]        

 cryst.   s( 3) = (    -1          0          0      )
                  (    -1          0          1      )
                  (    -1          1          0      )

 cart.    s( 3) = ( -1.0000000  0.0000000  0.0000000 )
                  (  0.0000000  1.0000000  0.0000000 )
                  (  0.0000000  0.0000000 -1.0000000 )


      isym =  4     180 deg rotation - cart. axis [1,0,0]        

 cryst.   s( 4) = (     0         -1          1      )
                  (     0         -1          0      )
                  (     1         -1          0      )

 cart.    s( 4) = (  1.0000000  0.0000000  0.0000000 )
                  (  0.0000000 -1.0000000  0.0000000 )
                  (  0.0000000  0.0000000 -1.0000000 )


      isym =  5     120 deg rotation - cart. axis [-1,-1,-1]     

 cryst.   s( 5) = (    -1          0          1      )
                  (    -1          1          0      )
                  (    -1          0          0      )

 cart.    s( 5) = (  0.0000000  1.0000000  0.0000000 )
                  (  0.0000000  0.0000000  1.0000000 )
                  (  1.0000000  0.0000000  0.0000000 )


      isym =  6     120 deg rotation - cart. axis [-1,1,1]       

 cryst.   s( 6) = (     0          1          0      )
                  (     0          0          1      )
                  (     1          0          0      )

 cart.    s( 6) = (  0.0000000 -1.0000000  0.0000000 )
                  (  0.0000000  0.0000000  1.0000000 )
                  ( -1.0000000  0.0000000  0.0000000 )


      isym =  7     120 deg rotation - cart. axis [1,1,-1]       

 cryst.   s( 7) = (     1          0         -1      )
                  (     0          0         -1      )
                  (     0          1         -1      )

 cart.    s( 7) = (  0.0000000  1.0000000  0.0000000 )
                  (  0.0000000  0.0000000 -1.0000000 )
                  ( -1.0000000  0.0000000  0.0000000 )


      isym =  8     120 deg rotation - cart. axis [1,-1,1]       

 cryst.   s( 8) = (     0         -1          0      )
                  (     1         -1          0      )
                  (     0         -1          1      )

 cart.    s( 8) = (  0.0000000 -1.0000000  0.0000000 )
                  (  0.0000000  0.0000000 -1.0000000 )
                  (  1.0000000  0.0000000  0.0000000 )


      isym =  9     120 deg rotation - cart. axis [1,1,1]        

 cryst.   s( 9) = (     0          0         -1      )
                  (     0          1         -1      )
                  (     1          0         -1      )

 cart.    s( 9) = (  0.0000000  0.0000000  1.0000000 )
                  (  1.0000000  0.0000000  0.0000000 )
                  (  0.0000000  1.0000000  0.0000000 )


      isym = 10     120 deg rotation - cart. axis [-1,1,-1]      

 cryst.   s(10) = (    -1          1          0      )
                  (    -1          0          0      )
                  (    -1          0          1      )

 cart.    s(10) = (  0.0000000  0.0000000  1.0000000 )
                  ( -1.0000000  0.0000000  0.0000000 )
                  (  0.0000000 -1.0000000  0.0000000 )


      isym = 11     120 deg rotation - cart. axis [1,-1,-1]      

 cryst.   s(11) = (     0          0          1      )
                  (     1          0          0      )
                  (     0          1          0      )

 cart.    s(11) = (  0.0000000  0.0000000 -1.0000000 )
                  ( -1.0000000  0.0000000  0.0000000 )
                  (  0.0000000  1.0000000  0.0000000 )


      isym = 12     120 deg rotation - cart. axis [-1,-1,1]      

 cryst.   s(12) = (     1         -1          0      )
                  (     0         -1          1      )
                  (     0         -1          0      )

 cart.    s(12) = (  0.0000000  0.0000000 -1.0000000 )
                  (  1.0000000  0.0000000  0.0000000 )
                  (  0.0000000 -1.0000000  0.0000000 )


      isym = 13     inv. 180 deg rotation - cart. axis [1,1,0]   

 cryst.   s(13) = (     0          1          0      )
                  (     1          0          0      )
                  (     0          0          1      )

 cart.    s(13) = (  0.0000000 -1.0000000  0.0000000 )
                  ( -1.0000000  0.0000000  0.0000000 )
                  (  0.0000000  0.0000000  1.0000000 )


      isym = 14     inv. 180 deg rotation - cart. axis [1,-1,0]  

 cryst.   s(14) = (     1          0         -1      )
                  (     0          1         -1      )
                  (     0          0         -1      )

 cart.    s(14) = (  0.0000000  1.0000000  0.0000000 )
                  (  1.0000000  0.0000000  0.0000000 )
                  (  0.0000000  0.0000000  1.0000000 )


      isym = 15     inv.  90 deg rotation - cart. axis [0,0,-1]  

 cryst.   s(15) = (     0         -1          0      )
                  (     0         -1          1      )
                  (     1         -1          0      )

 cart.    s(15) = (  0.0000000 -1.0000000  0.0000000 )
                  (  1.0000000  0.0000000  0.0000000 )
                  (  0.0000000  0.0000000 -1.0000000 )


      isym = 16     inv.  90 deg rotation - cart. axis [0,0,1]   

 cryst.   s(16) = (    -1          0          1      )
                  (    -1          0          0      )
                  (    -1          1          0      )

 cart.    s(16) = (  0.0000000  1.0000000  0.0000000 )
                  ( -1.0000000  0.0000000  0.0000000 )
                  (  0.0000000  0.0000000 -1.0000000 )


      isym = 17     inv. 180 deg rotation - cart. axis [1,0,1]   

 cryst.   s(17) = (     1          0          0      )
                  (     0          0          1      )
                  (     0          1          0      )

 cart.    s(17) = (  0.0000000  0.0000000 -1.0000000 )
                  (  0.0000000  1.0000000  0.0000000 )
                  ( -1.0000000  0.0000000  0.0000000 )


      isym = 18     inv. 180 deg rotation - cart. axis [-1,0,1]  

 cryst.   s(18) = (    -1          0          0      )
                  (    -1          1          0      )
                  (    -1          0          1      )

 cart.    s(18) = (  0.0000000  0.0000000  1.0000000 )
                  (  0.0000000  1.0000000  0.0000000 )
                  (  1.0000000  0.0000000  0.0000000 )


      isym = 19     inv.  90 deg rotation - cart. axis [0,1,0]   

 cryst.   s(19) = (     0         -1          1      )
                  (     1         -1          0      )
                  (     0         -1          0      )

 cart.    s(19) = (  0.0000000  0.0000000 -1.0000000 )
                  (  0.0000000 -1.0000000  0.0000000 )
                  (  1.0000000  0.0000000  0.0000000 )


      isym = 20     inv.  90 deg rotation - cart. axis [0,-1,0]  

 cryst.   s(20) = (     0          1         -1      )
                  (     0          0         -1      )
                  (     1          0         -1      )

 cart.    s(20) = (  0.0000000  0.0000000  1.0000000 )
                  (  0.0000000 -1.0000000  0.0000000 )
                  ( -1.0000000  0.0000000  0.0000000 )


      isym = 21     inv. 180 deg rotation - cart. axis [0,1,1]   

 cryst.   s(21) = (     1         -1          0      )
                  (     0         -1          0      )
                  (     0         -1          1      )

 cart.    s(21) = (  1.0000000  0.0000000  0.0000000 )
                  (  0.0000000  0.0000000 -1.0000000 )
                  (  0.0000000 -1.0000000  0.0000000 )


      isym = 22     inv. 180 deg rotation - cart. axis [0,1,-1]  

 cryst.   s(22) = (     0          0          1      )
                  (     0          1          0      )
                  (     1          0          0      )

 cart.    s(22) = (  1.0000000  0.0000000  0.0000000 )
                  (  0.0000000  0.0000000  1.0000000 )
                  (  0.0000000  1.0000000  0.0000000 )


      isym = 23     inv.  90 deg rotation - cart. axis [-1,0,0]  

 cryst.   s(23) = (     0          0         -1      )
                  (     1          0         -1      )
                  (     0          1         -1      )

 cart.    s(23) = ( -1.0000000  0.0000000  0.0000000 )
                  (  0.0000000  0.0000000 -1.0000000 )
                  (  0.0000000  1.0000000  0.0000000 )


      isym = 24     inv.  90 deg rotation - cart. axis [1,0,0]   

 cryst.   s(24) = (    -1          1          0      )
                  (    -1          0          1      )
                  (    -1          0          0      )

 cart.    s(24) = ( -1.0000000  0.0000000  0.0000000 )
                  (  0.0000000  0.0000000  1.0000000 )
                  (  0.0000000 -1.0000000  0.0000000 )


     point group T_d (-43m) 
     there are  5 classes
     the character table:

       E     8C3   3C2   6S4   6s_d 
A_1    1.00  1.00  1.00  1.00  1.00
A_2    1.00  1.00  1.00 -1.00 -1.00
E      2.00 -1.00  2.00  0.00  0.00
T_1    3.00  0.00 -1.00  1.00 -1.00
T_2    3.00  0.00 -1.00 -1.00  1.00

     the symmetry operations in each class and the name of the first element:

     E        1
          identity                                               
     8C3      5    7    8    6   12    9   10   11
          120 deg rotation - cart. axis [-1,-1,-1]               
     3C2      2    3    4
          180 deg rotation - cart. axis [0,0,1]                  
     6S4     15   16   20   19   23   24
          inv.  90 deg rotation - cart. axis [0,0,-1]            
     6s_d    13   14   17   18   21   22
          inv. 180 deg rotation - cart. axis [1,1,0]             

   Cartesian axes

     site n.     atom                  positions (alat units)
         1           Zn  tau(   1) = (   0.0000000   0.0000000   0.0000000  )
         2           S   tau(   2) = (   0.2500000   0.2500000   0.2500000  )

   Crystallographic axes

     site n.     atom                  positions (cryst. coord.)
         1           Zn  tau(   1) = (  0.0000000  0.0000000  0.0000000  )
         2           S   tau(   2) = ( -0.2500000  0.7500000 -0.2500000  )

     number of k points=   256
                       cart. coord. in units 2pi/alat
        k(    1) = (   0.0000000   0.0000000   0.0000000), wk =   0.0002500
        k(    2) = (  -0.0500000   0.0500000  -0.0500000), wk =   0.0020000
        k(    3) = (  -0.1000000   0.1000000  -0.1000000), wk =   0.0020000
        k(    4) = (  -0.1500000   0.1500000  -0.1500000), wk =   0.0020000
        k(    5) = (  -0.2000000   0.2000000  -0.2000000), wk =   0.0020000
        k(    6) = (  -0.2500000   0.2500000  -0.2500000), wk =   0.0020000
        k(    7) = (  -0.3000000   0.3000000  -0.3000000), wk =   0.0020000
        k(    8) = (  -0.3500000   0.3500000  -0.3500000), wk =   0.0020000
        k(    9) = (  -0.4000000   0.4000000  -0.4000000), wk =   0.0020000
        k(   10) = (  -0.4500000   0.4500000  -0.4500000), wk =   0.0020000
        k(   11) = (   0.5000000  -0.5000000   0.5000000), wk =   0.0010000
        k(   12) = (   0.0000000   0.1000000   0.0000000), wk =   0.0015000
        k(   13) = (  -0.0500000   0.1500000  -0.0500000), wk =   0.0060000
        k(   14) = (  -0.1000000   0.2000000  -0.1000000), wk =   0.0060000
        k(   15) = (  -0.1500000   0.2500000  -0.1500000), wk =   0.0060000
        k(   16) = (  -0.2000000   0.3000000  -0.2000000), wk =   0.0060000
        k(   17) = (  -0.2500000   0.3500000  -0.2500000), wk =   0.0060000
        k(   18) = (  -0.3000000   0.4000000  -0.3000000), wk =   0.0060000
        k(   19) = (  -0.3500000   0.4500000  -0.3500000), wk =   0.0060000
        k(   20) = (  -0.4000000   0.5000000  -0.4000000), wk =   0.0060000
        k(   21) = (   0.5500000  -0.4500000   0.5500000), wk =   0.0060000
        k(   22) = (   0.5000000  -0.4000000   0.5000000), wk =   0.0060000
        k(   23) = (   0.4500000  -0.3500000   0.4500000), wk =   0.0060000
        k(   24) = (   0.4000000  -0.3000000   0.4000000), wk =   0.0060000
        k(   25) = (   0.3500000  -0.2500000   0.3500000), wk =   0.0060000
        k(   26) = (   0.3000000  -0.2000000   0.3000000), wk =   0.0060000
        k(   27) = (   0.2500000  -0.1500000   0.2500000), wk =   0.0060000
        k(   28) = (   0.2000000  -0.1000000   0.2000000), wk =   0.0060000
        k(   29) = (   0.1500000  -0.0500000   0.1500000), wk =   0.0060000
        k(   30) = (   0.1000000  -0.0000000   0.1000000), wk =   0.0030000
        k(   31) = (   0.0000000   0.2000000   0.0000000), wk =   0.0015000
        k(   32) = (  -0.0500000   0.2500000  -0.0500000), wk =   0.0060000
        k(   33) = (  -0.1000000   0.3000000  -0.1000000), wk =   0.0060000
        k(   34) = (  -0.1500000   0.3500000  -0.1500000), wk =   0.0060000
        k(   35) = (  -0.2000000   0.4000000  -0.2000000), wk =   0.0060000
        k(   36) = (  -0.2500000   0.4500000  -0.2500000), wk =   0.0060000
        k(   37) = (  -0.3000000   0.5000000  -0.3000000), wk =   0.0060000
        k(   38) = (  -0.3500000   0.5500000  -0.3500000), wk =   0.0060000
        k(   39) = (   0.6000000  -0.4000000   0.6000000), wk =   0.0060000
        k(   40) = (   0.5500000  -0.3500000   0.5500000), wk =   0.0060000
        k(   41) = (   0.5000000  -0.3000000   0.5000000), wk =   0.0060000
        k(   42) = (   0.4500000  -0.2500000   0.4500000), wk =   0.0060000
        k(   43) = (   0.4000000  -0.2000000   0.4000000), wk =   0.0060000
        k(   44) = (   0.3500000  -0.1500000   0.3500000), wk =   0.0060000
        k(   45) = (   0.3000000  -0.1000000   0.3000000), wk =   0.0060000
        k(   46) = (   0.2500000  -0.0500000   0.2500000), wk =   0.0060000
        k(   47) = (   0.2000000   0.0000000   0.2000000), wk =   0.0030000
        k(   48) = (   0.0000000   0.3000000   0.0000000), wk =   0.0015000
        k(   49) = (  -0.0500000   0.3500000  -0.0500000), wk =   0.0060000
        k(   50) = (  -0.1000000   0.4000000  -0.1000000), wk =   0.0060000
        k(   51) = (  -0.1500000   0.4500000  -0.1500000), wk =   0.0060000
        k(   52) = (  -0.2000000   0.5000000  -0.2000000), wk =   0.0060000
        k(   53) = (  -0.2500000   0.5500000  -0.2500000), wk =   0.0060000
        k(   54) = (  -0.3000000   0.6000000  -0.3000000), wk =   0.0060000
        k(   55) = (   0.6500000  -0.3500000   0.6500000), wk =   0.0060000
        k(   56) = (   0.6000000  -0.3000000   0.6000000), wk =   0.0060000
        k(   57) = (   0.5500000  -0.2500000   0.5500000), wk =   0.0060000
        k(   58) = (   0.5000000  -0.2000000   0.5000000), wk =   0.0060000
        k(   59) = (   0.4500000  -0.1500000   0.4500000), wk =   0.0060000
        k(   60) = (   0.4000000  -0.1000000   0.4000000), wk =   0.0060000
        k(   61) = (   0.3500000  -0.0500000   0.3500000), wk =   0.0060000
        k(   62) = (   0.3000000  -0.0000000   0.3000000), wk =   0.0030000
        k(   63) = (   0.0000000   0.4000000   0.0000000), wk =   0.0015000
        k(   64) = (  -0.0500000   0.4500000  -0.0500000), wk =   0.0060000
        k(   65) = (  -0.1000000   0.5000000  -0.1000000), wk =   0.0060000
        k(   66) = (  -0.1500000   0.5500000  -0.1500000), wk =   0.0060000
        k(   67) = (  -0.2000000   0.6000000  -0.2000000), wk =   0.0060000
        k(   68) = (  -0.2500000   0.6500000  -0.2500000), wk =   0.0060000
        k(   69) = (   0.7000000  -0.3000000   0.7000000), wk =   0.0060000
        k(   70) = (   0.6500000  -0.2500000   0.6500000), wk =   0.0060000
        k(   71) = (   0.6000000  -0.2000000   0.6000000), wk =   0.0060000
        k(   72) = (   0.5500000  -0.1500000   0.5500000), wk =   0.0060000
        k(   73) = (   0.5000000  -0.1000000   0.5000000), wk =   0.0060000
        k(   74) = (   0.4500000  -0.0500000   0.4500000), wk =   0.0060000
        k(   75) = (   0.4000000   0.0000000   0.4000000), wk =   0.0030000
        k(   76) = (   0.0000000   0.5000000   0.0000000), wk =   0.0015000
        k(   77) = (  -0.0500000   0.5500000  -0.0500000), wk =   0.0060000
        k(   78) = (  -0.1000000   0.6000000  -0.1000000), wk =   0.0060000
        k(   79) = (  -0.1500000   0.6500000  -0.1500000), wk =   0.0060000
        k(   80) = (  -0.2000000   0.7000000  -0.2000000), wk =   0.0060000
        k(   81) = (   0.7500000  -0.2500000   0.7500000), wk =   0.0060000
        k(   82) = (   0.7000000  -0.2000000   0.7000000), wk =   0.0060000
        k(   83) = (   0.6500000  -0.1500000   0.6500000), wk =   0.0060000
        k(   84) = (   0.6000000  -0.1000000   0.6000000), wk =   0.0060000
        k(   85) = (   0.5500000  -0.0500000   0.5500000), wk =   0.0060000
        k(   86) = (   0.5000000   0.0000000   0.5000000), wk =   0.0030000
        k(   87) = (   0.0000000   0.6000000   0.0000000), wk =   0.0015000
        k(   88) = (  -0.0500000   0.6500000  -0.0500000), wk =   0.0060000
        k(   89) = (  -0.1000000   0.7000000  -0.1000000), wk =   0.0060000
        k(   90) = (  -0.1500000   0.7500000  -0.1500000), wk =   0.0060000
        k(   91) = (   0.8000000  -0.2000000   0.8000000), wk =   0.0060000
        k(   92) = (   0.7500000  -0.1500000   0.7500000), wk =   0.0060000
        k(   93) = (   0.7000000  -0.1000000   0.7000000), wk =   0.0060000
        k(   94) = (   0.6500000  -0.0500000   0.6500000), wk =   0.0060000
        k(   95) = (   0.6000000  -0.0000000   0.6000000), wk =   0.0030000
        k(   96) = (   0.0000000   0.7000000   0.0000000), wk =   0.0015000
        k(   97) = (  -0.0500000   0.7500000  -0.0500000), wk =   0.0060000
        k(   98) = (  -0.1000000   0.8000000  -0.1000000), wk =   0.0060000
        k(   99) = (   0.8500000  -0.1500000   0.8500000), wk =   0.0060000
        k(  100) = (   0.8000000  -0.1000000   0.8000000), wk =   0.0060000
        k(  101) = (   0.7500000  -0.0500000   0.7500000), wk =   0.0060000
        k(  102) = (   0.7000000   0.0000000   0.7000000), wk =   0.0030000
        k(  103) = (   0.0000000   0.8000000   0.0000000), wk =   0.0015000
        k(  104) = (  -0.0500000   0.8500000  -0.0500000), wk =   0.0060000
        k(  105) = (   0.9000000  -0.1000000   0.9000000), wk =   0.0060000
        k(  106) = (   0.8500000  -0.0500000   0.8500000), wk =   0.0060000
        k(  107) = (   0.8000000   0.0000000   0.8000000), wk =   0.0030000
        k(  108) = (   0.0000000   0.9000000   0.0000000), wk =   0.0015000
        k(  109) = (   0.9500000  -0.0500000   0.9500000), wk =   0.0060000
        k(  110) = (   0.9000000   0.0000000   0.9000000), wk =   0.0030000
        k(  111) = (   0.0000000  -1.0000000   0.0000000), wk =   0.0007500
        k(  112) = (  -0.1000000   0.2000000   0.0000000), wk =   0.0060000
        k(  113) = (  -0.1500000   0.2500000  -0.0500000), wk =   0.0120000
        k(  114) = (  -0.2000000   0.3000000  -0.1000000), wk =   0.0120000
        k(  115) = (  -0.2500000   0.3500000  -0.1500000), wk =   0.0120000
        k(  116) = (  -0.3000000   0.4000000  -0.2000000), wk =   0.0120000
        k(  117) = (  -0.3500000   0.4500000  -0.2500000), wk =   0.0120000
        k(  118) = (  -0.4000000   0.5000000  -0.3000000), wk =   0.0120000
        k(  119) = (   0.5500000  -0.4500000   0.6500000), wk =   0.0120000
        k(  120) = (   0.5000000  -0.4000000   0.6000000), wk =   0.0060000
        k(  121) = (  -0.1000000   0.3000000   0.0000000), wk =   0.0060000
        k(  122) = (  -0.1500000   0.3500000  -0.0500000), wk =   0.0120000
        k(  123) = (  -0.2000000   0.4000000  -0.1000000), wk =   0.0120000
        k(  124) = (  -0.2500000   0.4500000  -0.1500000), wk =   0.0120000
        k(  125) = (  -0.3000000   0.5000000  -0.2000000), wk =   0.0120000
        k(  126) = (  -0.3500000   0.5500000  -0.2500000), wk =   0.0120000
        k(  127) = (   0.6000000  -0.4000000   0.7000000), wk =   0.0120000
        k(  128) = (   0.5500000  -0.3500000   0.6500000), wk =   0.0120000
        k(  129) = (   0.5000000  -0.3000000   0.6000000), wk =   0.0120000
        k(  130) = (   0.4500000  -0.2500000   0.5500000), wk =   0.0120000
        k(  131) = (   0.4000000  -0.2000000   0.5000000), wk =   0.0120000
        k(  132) = (   0.3500000  -0.1500000   0.4500000), wk =   0.0120000
        k(  133) = (   0.3000000  -0.1000000   0.4000000), wk =   0.0120000
        k(  134) = (   0.2500000  -0.0500000   0.3500000), wk =   0.0120000
        k(  135) = (   0.2000000   0.0000000   0.3000000), wk =   0.0060000
        k(  136) = (  -0.1000000   0.4000000   0.0000000), wk =   0.0060000
        k(  137) = (  -0.1500000   0.4500000  -0.0500000), wk =   0.0120000
        k(  138) = (  -0.2000000   0.5000000  -0.1000000), wk =   0.0120000
        k(  139) = (  -0.2500000   0.5500000  -0.1500000), wk =   0.0120000
        k(  140) = (  -0.3000000   0.6000000  -0.2000000), wk =   0.0120000
        k(  141) = (   0.6500000  -0.3500000   0.7500000), wk =   0.0120000
        k(  142) = (   0.6000000  -0.3000000   0.7000000), wk =   0.0120000
        k(  143) = (   0.5500000  -0.2500000   0.6500000), wk =   0.0120000
        k(  144) = (   0.5000000  -0.2000000   0.6000000), wk =   0.0120000
        k(  145) = (   0.4500000  -0.1500000   0.5500000), wk =   0.0120000
        k(  146) = (   0.4000000  -0.1000000   0.5000000), wk =   0.0120000
        k(  147) = (   0.3500000  -0.0500000   0.4500000), wk =   0.0120000
        k(  148) = (   0.3000000   0.0000000   0.4000000), wk =   0.0060000
        k(  149) = (  -0.1000000   0.5000000   0.0000000), wk =   0.0060000
        k(  150) = (  -0.1500000   0.5500000  -0.0500000), wk =   0.0120000
        k(  151) = (  -0.2000000   0.6000000  -0.1000000), wk =   0.0120000
        k(  152) = (  -0.2500000   0.6500000  -0.1500000), wk =   0.0120000
        k(  153) = (   0.7000000  -0.3000000   0.8000000), wk =   0.0120000
        k(  154) = (   0.6500000  -0.2500000   0.7500000), wk =   0.0120000
        k(  155) = (   0.6000000  -0.2000000   0.7000000), wk =   0.0120000
        k(  156) = (   0.5500000  -0.1500000   0.6500000), wk =   0.0120000
        k(  157) = (   0.5000000  -0.1000000   0.6000000), wk =   0.0120000
        k(  158) = (   0.4500000  -0.0500000   0.5500000), wk =   0.0120000
        k(  159) = (   0.4000000   0.0000000   0.5000000), wk =   0.0060000
        k(  160) = (  -0.1000000   0.6000000   0.0000000), wk =   0.0060000
        k(  161) = (  -0.1500000   0.6500000  -0.0500000), wk =   0.0120000
        k(  162) = (  -0.2000000   0.7000000  -0.1000000), wk =   0.0120000
        k(  163) = (   0.7500000  -0.2500000   0.8500000), wk =   0.0120000
        k(  164) = (   0.7000000  -0.2000000   0.8000000), wk =   0.0120000
        k(  165) = (   0.6500000  -0.1500000   0.7500000), wk =   0.0120000
        k(  166) = (   0.6000000  -0.1000000   0.7000000), wk =   0.0120000
        k(  167) = (   0.5500000  -0.0500000   0.6500000), wk =   0.0120000
        k(  168) = (   0.5000000   0.0000000   0.6000000), wk =   0.0060000
        k(  169) = (  -0.1000000   0.7000000  -0.0000000), wk =   0.0060000
        k(  170) = (  -0.1500000   0.7500000  -0.0500000), wk =   0.0120000
        k(  171) = (   0.8000000  -0.2000000   0.9000000), wk =   0.0120000
        k(  172) = (   0.7500000  -0.1500000   0.8500000), wk =   0.0120000
        k(  173) = (   0.7000000  -0.1000000   0.8000000), wk =   0.0120000
        k(  174) = (   0.6500000  -0.0500000   0.7500000), wk =   0.0120000
        k(  175) = (   0.6000000  -0.0000000   0.7000000), wk =   0.0060000
        k(  176) = (  -0.1000000   0.8000000   0.0000000), wk =   0.0060000
        k(  177) = (   0.8500000  -0.1500000   0.9500000), wk =   0.0120000
        k(  178) = (   0.8000000  -0.1000000   0.9000000), wk =   0.0120000
        k(  179) = (   0.7500000  -0.0500000   0.8500000), wk =   0.0120000
        k(  180) = (   0.7000000   0.0000000   0.8000000), wk =   0.0060000
        k(  181) = (   0.9000000  -0.1000000   1.0000000), wk =   0.0060000
        k(  182) = (   0.8500000  -0.0500000   0.9500000), wk =   0.0120000
        k(  183) = (   0.8000000   0.0000000   0.9000000), wk =   0.0060000
        k(  184) = (  -0.1000000  -1.0000000  -0.0000000), wk =   0.0030000
        k(  185) = (  -0.2000000   0.4000000   0.0000000), wk =   0.0060000
        k(  186) = (  -0.2500000   0.4500000  -0.0500000), wk =   0.0120000
        k(  187) = (  -0.3000000   0.5000000  -0.1000000), wk =   0.0120000
        k(  188) = (  -0.3500000   0.5500000  -0.1500000), wk =   0.0120000
        k(  189) = (   0.6000000  -0.4000000   0.8000000), wk =   0.0120000
        k(  190) = (   0.5500000  -0.3500000   0.7500000), wk =   0.0120000
        k(  191) = (   0.5000000  -0.3000000   0.7000000), wk =   0.0060000
        k(  192) = (  -0.2000000   0.5000000   0.0000000), wk =   0.0060000
        k(  193) = (  -0.2500000   0.5500000  -0.0500000), wk =   0.0120000
        k(  194) = (  -0.3000000   0.6000000  -0.1000000), wk =   0.0120000
        k(  195) = (   0.6500000  -0.3500000   0.8500000), wk =   0.0120000
        k(  196) = (   0.6000000  -0.3000000   0.8000000), wk =   0.0120000
        k(  197) = (   0.5500000  -0.2500000   0.7500000), wk =   0.0120000
        k(  198) = (   0.5000000  -0.2000000   0.7000000), wk =   0.0120000
        k(  199) = (   0.4500000  -0.1500000   0.6500000), wk =   0.0120000
        k(  200) = (   0.4000000  -0.1000000   0.6000000), wk =   0.0120000
        k(  201) = (   0.3500000  -0.0500000   0.5500000), wk =   0.0120000
        k(  202) = (   0.3000000  -0.0000000   0.5000000), wk =   0.0060000
        k(  203) = (  -0.2000000   0.6000000   0.0000000), wk =   0.0060000
        k(  204) = (  -0.2500000   0.6500000  -0.0500000), wk =   0.0120000
        k(  205) = (   0.7000000  -0.3000000   0.9000000), wk =   0.0120000
        k(  206) = (   0.6500000  -0.2500000   0.8500000), wk =   0.0120000
        k(  207) = (   0.6000000  -0.2000000   0.8000000), wk =   0.0120000
        k(  208) = (   0.5500000  -0.1500000   0.7500000), wk =   0.0120000
        k(  209) = (   0.5000000  -0.1000000   0.7000000), wk =   0.0120000
        k(  210) = (   0.4500000  -0.0500000   0.6500000), wk =   0.0120000
        k(  211) = (   0.4000000   0.0000000   0.6000000), wk =   0.0060000
        k(  212) = (  -0.2000000   0.7000000  -0.0000000), wk =   0.0060000
        k(  213) = (   0.7500000  -0.2500000   0.9500000), wk =   0.0120000
        k(  214) = (   0.7000000  -0.2000000   0.9000000), wk =   0.0120000
        k(  215) = (   0.6500000  -0.1500000   0.8500000), wk =   0.0120000
        k(  216) = (   0.6000000  -0.1000000   0.8000000), wk =   0.0120000
        k(  217) = (   0.5500000  -0.0500000   0.7500000), wk =   0.0120000
        k(  218) = (   0.5000000  -0.0000000   0.7000000), wk =   0.0060000
        k(  219) = (   0.8000000  -0.2000000   1.0000000), wk =   0.0060000
        k(  220) = (   0.7500000  -0.1500000   0.9500000), wk =   0.0120000
        k(  221) = (   0.7000000  -0.1000000   0.9000000), wk =   0.0120000
        k(  222) = (   0.6500000  -0.0500000   0.8500000), wk =   0.0120000
        k(  223) = (   0.6000000   0.0000000   0.8000000), wk =   0.0060000
        k(  224) = (   0.8000000  -0.1000000   1.0000000), wk =   0.0060000
        k(  225) = (   0.7500000  -0.0500000   0.9500000), wk =   0.0120000
        k(  226) = (   0.7000000   0.0000000   0.9000000), wk =   0.0060000
        k(  227) = (  -0.2000000  -1.0000000   0.0000000), wk =   0.0030000
        k(  228) = (  -0.3000000   0.6000000  -0.0000000), wk =   0.0060000
        k(  229) = (   0.6500000  -0.3500000   0.9500000), wk =   0.0120000
        k(  230) = (   0.6000000  -0.3000000   0.9000000), wk =   0.0120000
        k(  231) = (   0.5500000  -0.2500000   0.8500000), wk =   0.0120000
        k(  232) = (   0.5000000  -0.2000000   0.8000000), wk =   0.0060000
        k(  233) = (   0.7000000  -0.3000000   1.0000000), wk =   0.0060000
        k(  234) = (   0.6500000  -0.2500000   0.9500000), wk =   0.0120000
        k(  235) = (   0.6000000  -0.2000000   0.9000000), wk =   0.0120000
        k(  236) = (   0.5500000  -0.1500000   0.8500000), wk =   0.0120000
        k(  237) = (   0.5000000  -0.1000000   0.8000000), wk =   0.0120000
        k(  238) = (   0.4500000  -0.0500000   0.7500000), wk =   0.0120000
        k(  239) = (   0.4000000   0.0000000   0.7000000), wk =   0.0060000
        k(  240) = (   0.7000000  -0.2000000   1.0000000), wk =   0.0060000
        k(  241) = (   0.6500000  -0.1500000   0.9500000), wk =   0.0120000
        k(  242) = (   0.6000000  -0.1000000   0.9000000), wk =   0.0120000
        k(  243) = (   0.5500000  -0.0500000   0.8500000), wk =   0.0120000
        k(  244) = (   0.5000000   0.0000000   0.8000000), wk =   0.0060000
        k(  245) = (   0.7000000  -0.1000000   1.0000000), wk =   0.0060000
        k(  246) = (   0.6500000  -0.0500000   0.9500000), wk =   0.0120000
        k(  247) = (   0.6000000   0.0000000   0.9000000), wk =   0.0060000
        k(  248) = (  -0.3000000  -1.0000000   0.0000000), wk =   0.0030000
        k(  249) = (   0.6000000  -0.2000000   1.0000000), wk =   0.0060000
        k(  250) = (   0.5500000  -0.1500000   0.9500000), wk =   0.0120000
        k(  251) = (   0.5000000  -0.1000000   0.9000000), wk =   0.0060000
        k(  252) = (   0.6000000  -0.1000000   1.0000000), wk =   0.0060000
        k(  253) = (   0.5500000  -0.0500000   0.9500000), wk =   0.0120000
        k(  254) = (   0.5000000   0.0000000   0.9000000), wk =   0.0060000
        k(  255) = (  -0.4000000  -1.0000000   0.0000000), wk =   0.0030000
        k(  256) = (  -0.5000000  -1.0000000   0.0000000), wk =   0.0015000

                       cryst. coord.
        k(    1) = (   0.0000000   0.0000000   0.0000000), wk =   0.0002500
        k(    2) = (   0.0000000   0.0000000   0.0500000), wk =   0.0020000
        k(    3) = (   0.0000000   0.0000000   0.1000000), wk =   0.0020000
        k(    4) = (   0.0000000   0.0000000   0.1500000), wk =   0.0020000
        k(    5) = (   0.0000000   0.0000000   0.2000000), wk =   0.0020000
        k(    6) = (   0.0000000   0.0000000   0.2500000), wk =   0.0020000
        k(    7) = (   0.0000000   0.0000000   0.3000000), wk =   0.0020000
        k(    8) = (   0.0000000   0.0000000   0.3500000), wk =   0.0020000
        k(    9) = (   0.0000000   0.0000000   0.4000000), wk =   0.0020000
        k(   10) = (   0.0000000   0.0000000   0.4500000), wk =   0.0020000
        k(   11) = (   0.0000000   0.0000000  -0.5000000), wk =   0.0010000
        k(   12) = (   0.0000000   0.0500000   0.0500000), wk =   0.0015000
        k(   13) = (   0.0000000   0.0500000   0.1000000), wk =   0.0060000
        k(   14) = (   0.0000000   0.0500000   0.1500000), wk =   0.0060000
        k(   15) = (   0.0000000   0.0500000   0.2000000), wk =   0.0060000
        k(   16) = (   0.0000000   0.0500000   0.2500000), wk =   0.0060000
        k(   17) = (   0.0000000   0.0500000   0.3000000), wk =   0.0060000
        k(   18) = (   0.0000000   0.0500000   0.3500000), wk =   0.0060000
        k(   19) = (   0.0000000   0.0500000   0.4000000), wk =   0.0060000
        k(   20) = (   0.0000000   0.0500000   0.4500000), wk =   0.0060000
        k(   21) = (   0.0000000   0.0500000  -0.5000000), wk =   0.0060000
        k(   22) = (   0.0000000   0.0500000  -0.4500000), wk =   0.0060000
        k(   23) = (   0.0000000   0.0500000  -0.4000000), wk =   0.0060000
        k(   24) = (   0.0000000   0.0500000  -0.3500000), wk =   0.0060000
        k(   25) = (   0.0000000   0.0500000  -0.3000000), wk =   0.0060000
        k(   26) = (   0.0000000   0.0500000  -0.2500000), wk =   0.0060000
        k(   27) = (   0.0000000   0.0500000  -0.2000000), wk =   0.0060000
        k(   28) = (   0.0000000   0.0500000  -0.1500000), wk =   0.0060000
        k(   29) = (   0.0000000   0.0500000  -0.1000000), wk =   0.0060000
        k(   30) = (   0.0000000   0.0500000  -0.0500000), wk =   0.0030000
        k(   31) = (   0.0000000   0.1000000   0.1000000), wk =   0.0015000
        k(   32) = (   0.0000000   0.1000000   0.1500000), wk =   0.0060000
        k(   33) = (   0.0000000   0.1000000   0.2000000), wk =   0.0060000
        k(   34) = (   0.0000000   0.1000000   0.2500000), wk =   0.0060000
        k(   35) = (   0.0000000   0.1000000   0.3000000), wk =   0.0060000
        k(   36) = (   0.0000000   0.1000000   0.3500000), wk =   0.0060000
        k(   37) = (   0.0000000   0.1000000   0.4000000), wk =   0.0060000
        k(   38) = (   0.0000000   0.1000000   0.4500000), wk =   0.0060000
        k(   39) = (   0.0000000   0.1000000  -0.5000000), wk =   0.0060000
        k(   40) = (   0.0000000   0.1000000  -0.4500000), wk =   0.0060000
        k(   41) = (   0.0000000   0.1000000  -0.4000000), wk =   0.0060000
        k(   42) = (   0.0000000   0.1000000  -0.3500000), wk =   0.0060000
        k(   43) = (   0.0000000   0.1000000  -0.3000000), wk =   0.0060000
        k(   44) = (   0.0000000   0.1000000  -0.2500000), wk =   0.0060000
        k(   45) = (   0.0000000   0.1000000  -0.2000000), wk =   0.0060000
        k(   46) = (   0.0000000   0.1000000  -0.1500000), wk =   0.0060000
        k(   47) = (   0.0000000   0.1000000  -0.1000000), wk =   0.0030000
        k(   48) = (   0.0000000   0.1500000   0.1500000), wk =   0.0015000
        k(   49) = (   0.0000000   0.1500000   0.2000000), wk =   0.0060000
        k(   50) = (   0.0000000   0.1500000   0.2500000), wk =   0.0060000
        k(   51) = (   0.0000000   0.1500000   0.3000000), wk =   0.0060000
        k(   52) = (   0.0000000   0.1500000   0.3500000), wk =   0.0060000
        k(   53) = (   0.0000000   0.1500000   0.4000000), wk =   0.0060000
        k(   54) = (   0.0000000   0.1500000   0.4500000), wk =   0.0060000
        k(   55) = (   0.0000000   0.1500000  -0.5000000), wk =   0.0060000
        k(   56) = (   0.0000000   0.1500000  -0.4500000), wk =   0.0060000
        k(   57) = (   0.0000000   0.1500000  -0.4000000), wk =   0.0060000
        k(   58) = (   0.0000000   0.1500000  -0.3500000), wk =   0.0060000
        k(   59) = (   0.0000000   0.1500000  -0.3000000), wk =   0.0060000
        k(   60) = (   0.0000000   0.1500000  -0.2500000), wk =   0.0060000
        k(   61) = (   0.0000000   0.1500000  -0.2000000), wk =   0.0060000
        k(   62) = (   0.0000000   0.1500000  -0.1500000), wk =   0.0030000
        k(   63) = (   0.0000000   0.2000000   0.2000000), wk =   0.0015000
        k(   64) = (   0.0000000   0.2000000   0.2500000), wk =   0.0060000
        k(   65) = (   0.0000000   0.2000000   0.3000000), wk =   0.0060000
        k(   66) = (   0.0000000   0.2000000   0.3500000), wk =   0.0060000
        k(   67) = (   0.0000000   0.2000000   0.4000000), wk =   0.0060000
        k(   68) = (   0.0000000   0.2000000   0.4500000), wk =   0.0060000
        k(   69) = (   0.0000000   0.2000000  -0.5000000), wk =   0.0060000
        k(   70) = (   0.0000000   0.2000000  -0.4500000), wk =   0.0060000
        k(   71) = (   0.0000000   0.2000000  -0.4000000), wk =   0.0060000
        k(   72) = (   0.0000000   0.2000000  -0.3500000), wk =   0.0060000
        k(   73) = (   0.0000000   0.2000000  -0.3000000), wk =   0.0060000
        k(   74) = (   0.0000000   0.2000000  -0.2500000), wk =   0.0060000
        k(   75) = (   0.0000000   0.2000000  -0.2000000), wk =   0.0030000
        k(   76) = (   0.0000000   0.2500000   0.2500000), wk =   0.0015000
        k(   77) = (   0.0000000   0.2500000   0.3000000), wk =   0.0060000
        k(   78) = (   0.0000000   0.2500000   0.3500000), wk =   0.0060000
        k(   79) = (   0.0000000   0.2500000   0.4000000), wk =   0.0060000
        k(   80) = (   0.0000000   0.2500000   0.4500000), wk =   0.0060000
        k(   81) = (   0.0000000   0.2500000  -0.5000000), wk =   0.0060000
        k(   82) = (   0.0000000   0.2500000  -0.4500000), wk =   0.0060000
        k(   83) = (   0.0000000   0.2500000  -0.4000000), wk =   0.0060000
        k(   84) = (   0.0000000   0.2500000  -0.3500000), wk =   0.0060000
        k(   85) = (   0.0000000   0.2500000  -0.3000000), wk =   0.0060000
        k(   86) = (   0.0000000   0.2500000  -0.2500000), wk =   0.0030000
        k(   87) = (   0.0000000   0.3000000   0.3000000), wk =   0.0015000
        k(   88) = (   0.0000000   0.3000000   0.3500000), wk =   0.0060000
        k(   89) = (   0.0000000   0.3000000   0.4000000), wk =   0.0060000
        k(   90) = (   0.0000000   0.3000000   0.4500000), wk =   0.0060000
        k(   91) = (   0.0000000   0.3000000  -0.5000000), wk =   0.0060000
        k(   92) = (   0.0000000   0.3000000  -0.4500000), wk =   0.0060000
        k(   93) = (   0.0000000   0.3000000  -0.4000000), wk =   0.0060000
        k(   94) = (   0.0000000   0.3000000  -0.3500000), wk =   0.0060000
        k(   95) = (   0.0000000   0.3000000  -0.3000000), wk =   0.0030000
        k(   96) = (   0.0000000   0.3500000   0.3500000), wk =   0.0015000
        k(   97) = (   0.0000000   0.3500000   0.4000000), wk =   0.0060000
        k(   98) = (   0.0000000   0.3500000   0.4500000), wk =   0.0060000
        k(   99) = (   0.0000000   0.3500000  -0.5000000), wk =   0.0060000
        k(  100) = (   0.0000000   0.3500000  -0.4500000), wk =   0.0060000
        k(  101) = (   0.0000000   0.3500000  -0.4000000), wk =   0.0060000
        k(  102) = (   0.0000000   0.3500000  -0.3500000), wk =   0.0030000
        k(  103) = (   0.0000000   0.4000000   0.4000000), wk =   0.0015000
        k(  104) = (   0.0000000   0.4000000   0.4500000), wk =   0.0060000
        k(  105) = (   0.0000000   0.4000000  -0.5000000), wk =   0.0060000
        k(  106) = (   0.0000000   0.4000000  -0.4500000), wk =   0.0060000
        k(  107) = (   0.0000000   0.4000000  -0.4000000), wk =   0.0030000
        k(  108) = (   0.0000000   0.4500000   0.4500000), wk =   0.0015000
        k(  109) = (   0.0000000   0.4500000  -0.5000000), wk =   0.0060000
        k(  110) = (   0.0000000   0.4500000  -0.4500000), wk =   0.0030000
        k(  111) = (   0.0000000  -0.5000000  -0.5000000), wk =   0.0007500
        k(  112) = (   0.0500000   0.1000000   0.1500000), wk =   0.0060000
        k(  113) = (   0.0500000   0.1000000   0.2000000), wk =   0.0120000
        k(  114) = (   0.0500000   0.1000000   0.2500000), wk =   0.0120000
        k(  115) = (   0.0500000   0.1000000   0.3000000), wk =   0.0120000
        k(  116) = (   0.0500000   0.1000000   0.3500000), wk =   0.0120000
        k(  117) = (   0.0500000   0.1000000   0.4000000), wk =   0.0120000
        k(  118) = (   0.0500000   0.1000000   0.4500000), wk =   0.0120000
        k(  119) = (   0.0500000   0.1000000  -0.5000000), wk =   0.0120000
        k(  120) = (   0.0500000   0.1000000  -0.4500000), wk =   0.0060000
        k(  121) = (   0.0500000   0.1500000   0.2000000), wk =   0.0060000
        k(  122) = (   0.0500000   0.1500000   0.2500000), wk =   0.0120000
        k(  123) = (   0.0500000   0.1500000   0.3000000), wk =   0.0120000
        k(  124) = (   0.0500000   0.1500000   0.3500000), wk =   0.0120000
        k(  125) = (   0.0500000   0.1500000   0.4000000), wk =   0.0120000
        k(  126) = (   0.0500000   0.1500000   0.4500000), wk =   0.0120000
        k(  127) = (   0.0500000   0.1500000  -0.5000000), wk =   0.0120000
        k(  128) = (   0.0500000   0.1500000  -0.4500000), wk =   0.0120000
        k(  129) = (   0.0500000   0.1500000  -0.4000000), wk =   0.0120000
        k(  130) = (   0.0500000   0.1500000  -0.3500000), wk =   0.0120000
        k(  131) = (   0.0500000   0.1500000  -0.3000000), wk =   0.0120000
        k(  132) = (   0.0500000   0.1500000  -0.2500000), wk =   0.0120000
        k(  133) = (   0.0500000   0.1500000  -0.2000000), wk =   0.0120000
        k(  134) = (   0.0500000   0.1500000  -0.1500000), wk =   0.0120000
        k(  135) = (   0.0500000   0.1500000  -0.1000000), wk =   0.0060000
        k(  136) = (   0.0500000   0.2000000   0.2500000), wk =   0.0060000
        k(  137) = (   0.0500000   0.2000000   0.3000000), wk =   0.0120000
        k(  138) = (   0.0500000   0.2000000   0.3500000), wk =   0.0120000
        k(  139) = (   0.0500000   0.2000000   0.4000000), wk =   0.0120000
        k(  140) = (   0.0500000   0.2000000   0.4500000), wk =   0.0120000
        k(  141) = (   0.0500000   0.2000000  -0.5000000), wk =   0.0120000
        k(  142) = (   0.0500000   0.2000000  -0.4500000), wk =   0.0120000
        k(  143) = (   0.0500000   0.2000000  -0.4000000), wk =   0.0120000
        k(  144) = (   0.0500000   0.2000000  -0.3500000), wk =   0.0120000
        k(  145) = (   0.0500000   0.2000000  -0.3000000), wk =   0.0120000
        k(  146) = (   0.0500000   0.2000000  -0.2500000), wk =   0.0120000
        k(  147) = (   0.0500000   0.2000000  -0.2000000), wk =   0.0120000
        k(  148) = (   0.0500000   0.2000000  -0.1500000), wk =   0.0060000
        k(  149) = (   0.0500000   0.2500000   0.3000000), wk =   0.0060000
        k(  150) = (   0.0500000   0.2500000   0.3500000), wk =   0.0120000
        k(  151) = (   0.0500000   0.2500000   0.4000000), wk =   0.0120000
        k(  152) = (   0.0500000   0.2500000   0.4500000), wk =   0.0120000
        k(  153) = (   0.0500000   0.2500000  -0.5000000), wk =   0.0120000
        k(  154) = (   0.0500000   0.2500000  -0.4500000), wk =   0.0120000
        k(  155) = (   0.0500000   0.2500000  -0.4000000), wk =   0.0120000
        k(  156) = (   0.0500000   0.2500000  -0.3500000), wk =   0.0120000
        k(  157) = (   0.0500000   0.2500000  -0.3000000), wk =   0.0120000
        k(  158) = (   0.0500000   0.2500000  -0.2500000), wk =   0.0120000
        k(  159) = (   0.0500000   0.2500000  -0.2000000), wk =   0.0060000
        k(  160) = (   0.0500000   0.3000000   0.3500000), wk =   0.0060000
        k(  161) = (   0.0500000   0.3000000   0.4000000), wk =   0.0120000
        k(  162) = (   0.0500000   0.3000000   0.4500000), wk =   0.0120000
        k(  163) = (   0.0500000   0.3000000  -0.5000000), wk =   0.0120000
        k(  164) = (   0.0500000   0.3000000  -0.4500000), wk =   0.0120000
        k(  165) = (   0.0500000   0.3000000  -0.4000000), wk =   0.0120000
        k(  166) = (   0.0500000   0.3000000  -0.3500000), wk =   0.0120000
        k(  167) = (   0.0500000   0.3000000  -0.3000000), wk =   0.0120000
        k(  168) = (   0.0500000   0.3000000  -0.2500000), wk =   0.0060000
        k(  169) = (   0.0500000   0.3500000   0.4000000), wk =   0.0060000
        k(  170) = (   0.0500000   0.3500000   0.4500000), wk =   0.0120000
        k(  171) = (   0.0500000   0.3500000  -0.5000000), wk =   0.0120000
        k(  172) = (   0.0500000   0.3500000  -0.4500000), wk =   0.0120000
        k(  173) = (   0.0500000   0.3500000  -0.4000000), wk =   0.0120000
        k(  174) = (   0.0500000   0.3500000  -0.3500000), wk =   0.0120000
        k(  175) = (   0.0500000   0.3500000  -0.3000000), wk =   0.0060000
        k(  176) = (   0.0500000   0.4000000   0.4500000), wk =   0.0060000
        k(  177) = (   0.0500000   0.4000000  -0.5000000), wk =   0.0120000
        k(  178) = (   0.0500000   0.4000000  -0.4500000), wk =   0.0120000
        k(  179) = (   0.0500000   0.4000000  -0.4000000), wk =   0.0120000
        k(  180) = (   0.0500000   0.4000000  -0.3500000), wk =   0.0060000
        k(  181) = (   0.0500000   0.4500000  -0.5000000), wk =   0.0060000
        k(  182) = (   0.0500000   0.4500000  -0.4500000), wk =   0.0120000
        k(  183) = (   0.0500000   0.4500000  -0.4000000), wk =   0.0060000
        k(  184) = (   0.0500000  -0.5000000  -0.4500000), wk =   0.0030000
        k(  185) = (   0.1000000   0.2000000   0.3000000), wk =   0.0060000
        k(  186) = (   0.1000000   0.2000000   0.3500000), wk =   0.0120000
        k(  187) = (   0.1000000   0.2000000   0.4000000), wk =   0.0120000
        k(  188) = (   0.1000000   0.2000000   0.4500000), wk =   0.0120000
        k(  189) = (   0.1000000   0.2000000  -0.5000000), wk =   0.0120000
        k(  190) = (   0.1000000   0.2000000  -0.4500000), wk =   0.0120000
        k(  191) = (   0.1000000   0.2000000  -0.4000000), wk =   0.0060000
        k(  192) = (   0.1000000   0.2500000   0.3500000), wk =   0.0060000
        k(  193) = (   0.1000000   0.2500000   0.4000000), wk =   0.0120000
        k(  194) = (   0.1000000   0.2500000   0.4500000), wk =   0.0120000
        k(  195) = (   0.1000000   0.2500000  -0.5000000), wk =   0.0120000
        k(  196) = (   0.1000000   0.2500000  -0.4500000), wk =   0.0120000
        k(  197) = (   0.1000000   0.2500000  -0.4000000), wk =   0.0120000
        k(  198) = (   0.1000000   0.2500000  -0.3500000), wk =   0.0120000
        k(  199) = (   0.1000000   0.2500000  -0.3000000), wk =   0.0120000
        k(  200) = (   0.1000000   0.2500000  -0.2500000), wk =   0.0120000
        k(  201) = (   0.1000000   0.2500000  -0.2000000), wk =   0.0120000
        k(  202) = (   0.1000000   0.2500000  -0.1500000), wk =   0.0060000
        k(  203) = (   0.1000000   0.3000000   0.4000000), wk =   0.0060000
        k(  204) = (   0.1000000   0.3000000   0.4500000), wk =   0.0120000
        k(  205) = (   0.1000000   0.3000000  -0.5000000), wk =   0.0120000
        k(  206) = (   0.1000000   0.3000000  -0.4500000), wk =   0.0120000
        k(  207) = (   0.1000000   0.3000000  -0.4000000), wk =   0.0120000
        k(  208) = (   0.1000000   0.3000000  -0.3500000), wk =   0.0120000
        k(  209) = (   0.1000000   0.3000000  -0.3000000), wk =   0.0120000
        k(  210) = (   0.1000000   0.3000000  -0.2500000), wk =   0.0120000
        k(  211) = (   0.1000000   0.3000000  -0.2000000), wk =   0.0060000
        k(  212) = (   0.1000000   0.3500000   0.4500000), wk =   0.0060000
        k(  213) = (   0.1000000   0.3500000  -0.5000000), wk =   0.0120000
        k(  214) = (   0.1000000   0.3500000  -0.4500000), wk =   0.0120000
        k(  215) = (   0.1000000   0.3500000  -0.4000000), wk =   0.0120000
        k(  216) = (   0.1000000   0.3500000  -0.3500000), wk =   0.0120000
        k(  217) = (   0.1000000   0.3500000  -0.3000000), wk =   0.0120000
        k(  218) = (   0.1000000   0.3500000  -0.2500000), wk =   0.0060000
        k(  219) = (   0.1000000   0.4000000  -0.5000000), wk =   0.0060000
        k(  220) = (   0.1000000   0.4000000  -0.4500000), wk =   0.0120000
        k(  221) = (   0.1000000   0.4000000  -0.4000000), wk =   0.0120000
        k(  222) = (   0.1000000   0.4000000  -0.3500000), wk =   0.0120000
        k(  223) = (   0.1000000   0.4000000  -0.3000000), wk =   0.0060000
        k(  224) = (   0.1000000   0.4500000  -0.4500000), wk =   0.0060000
        k(  225) = (   0.1000000   0.4500000  -0.4000000), wk =   0.0120000
        k(  226) = (   0.1000000   0.4500000  -0.3500000), wk =   0.0060000
        k(  227) = (   0.1000000  -0.5000000  -0.4000000), wk =   0.0030000
        k(  228) = (   0.1500000   0.3000000   0.4500000), wk =   0.0060000
        k(  229) = (   0.1500000   0.3000000  -0.5000000), wk =   0.0120000
        k(  230) = (   0.1500000   0.3000000  -0.4500000), wk =   0.0120000
        k(  231) = (   0.1500000   0.3000000  -0.4000000), wk =   0.0120000
        k(  232) = (   0.1500000   0.3000000  -0.3500000), wk =   0.0060000
        k(  233) = (   0.1500000   0.3500000  -0.5000000), wk =   0.0060000
        k(  234) = (   0.1500000   0.3500000  -0.4500000), wk =   0.0120000
        k(  235) = (   0.1500000   0.3500000  -0.4000000), wk =   0.0120000
        k(  236) = (   0.1500000   0.3500000  -0.3500000), wk =   0.0120000
        k(  237) = (   0.1500000   0.3500000  -0.3000000), wk =   0.0120000
        k(  238) = (   0.1500000   0.3500000  -0.2500000), wk =   0.0120000
        k(  239) = (   0.1500000   0.3500000  -0.2000000), wk =   0.0060000
        k(  240) = (   0.1500000   0.4000000  -0.4500000), wk =   0.0060000
        k(  241) = (   0.1500000   0.4000000  -0.4000000), wk =   0.0120000
        k(  242) = (   0.1500000   0.4000000  -0.3500000), wk =   0.0120000
        k(  243) = (   0.1500000   0.4000000  -0.3000000), wk =   0.0120000
        k(  244) = (   0.1500000   0.4000000  -0.2500000), wk =   0.0060000
        k(  245) = (   0.1500000   0.4500000  -0.4000000), wk =   0.0060000
        k(  246) = (   0.1500000   0.4500000  -0.3500000), wk =   0.0120000
        k(  247) = (   0.1500000   0.4500000  -0.3000000), wk =   0.0060000
        k(  248) = (   0.1500000  -0.5000000  -0.3500000), wk =   0.0030000
        k(  249) = (   0.2000000   0.4000000  -0.4000000), wk =   0.0060000
        k(  250) = (   0.2000000   0.4000000  -0.3500000), wk =   0.0120000
        k(  251) = (   0.2000000   0.4000000  -0.3000000), wk =   0.0060000
        k(  252) = (   0.2000000   0.4500000  -0.3500000), wk =   0.0060000
        k(  253) = (   0.2000000   0.4500000  -0.3000000), wk =   0.0120000
        k(  254) = (   0.2000000   0.4500000  -0.2500000), wk =   0.0060000
        k(  255) = (   0.2000000  -0.5000000  -0.3000000), wk =   0.0030000
        k(  256) = (   0.2500000  -0.5000000  -0.2500000), wk =   0.0015000

     Dense  grid:    16961 G-vectors     FFT dimensions: (  36,  36,  36)

     Dynamical RAM for                 wfc:       0.55 MB

     Dynamical RAM for     wfc (w. buffer):       0.55 MB

     Dynamical RAM for           str. fact:       0.52 MB

     Dynamical RAM for           local pot:       0.00 MB

     Dynamical RAM for          nlocal pot:       0.85 MB

     Dynamical RAM for                qrad:       2.49 MB

     Dynamical RAM for          rho,v,vnew:       1.84 MB

     Dynamical RAM for           G-vectors:       1.10 MB

     Dynamical RAM for          h,s,v(r/c):       0.05 MB

     Dynamical RAM for          <psi|beta>:       0.01 MB

     Dynamical RAM for                 psi:       1.11 MB

     Dynamical RAM for                hpsi:       1.11 MB

     Dynamical RAM for      wfcinit/wfcrot:       1.11 MB

     Estimated static dynamical RAM per process >       9.91 MB

     Estimated max dynamical RAM per process >      12.18 MB

     The potential is recalculated from file :
     ./SCRATCH/zns.save/charge-density

     Starting wfcs are random

     Band Structure Calculation
     Davidson diagonalization with overlap

     Computing kpt #:     1  of   256
     total cpu time spent up to now is        0.6 secs

     Computing kpt #:     2  of   256
     total cpu time spent up to now is        1.1 secs

     Computing kpt #:     3  of   256
     total cpu time spent up to now is        1.6 secs

     Computing kpt #:     4  of   256
     total cpu time spent up to now is        2.1 secs

     Computing kpt #:     5  of   256
     total cpu time spent up to now is        2.5 secs

     Computing kpt #:     6  of   256
     total cpu time spent up to now is        3.0 secs

     Computing kpt #:     7  of   256
     total cpu time spent up to now is        3.4 secs

     Computing kpt #:     8  of   256
     total cpu time spent up to now is        3.9 secs

     Computing kpt #:     9  of   256
     total cpu time spent up to now is        4.4 secs

     Computing kpt #:    10  of   256
     total cpu time spent up to now is        4.8 secs

     Computing kpt #:    11  of   256
     total cpu time spent up to now is        5.3 secs

     Computing kpt #:    12  of   256
     total cpu time spent up to now is        5.8 secs

     Computing kpt #:    13  of   256
     total cpu time spent up to now is        6.2 secs

     Computing kpt #:    14  of   256
     total cpu time spent up to now is        6.7 secs

     Computing kpt #:    15  of   256
     total cpu time spent up to now is        7.2 secs

     Computing kpt #:    16  of   256
     total cpu time spent up to now is        7.7 secs

     Computing kpt #:    17  of   256
     total cpu time spent up to now is        8.2 secs

     Computing kpt #:    18  of   256
     total cpu time spent up to now is        8.6 secs

     Computing kpt #:    19  of   256
     total cpu time spent up to now is        9.1 secs

     Computing kpt #:    20  of   256
     total cpu time spent up to now is        9.6 secs

     Computing kpt #:    21  of   256
     total cpu time spent up to now is       10.0 secs

     Computing kpt #:    22  of   256
     total cpu time spent up to now is       10.5 secs

     Computing kpt #:    23  of   256
     total cpu time spent up to now is       11.0 secs

     Computing kpt #:    24  of   256
     total cpu time spent up to now is       11.5 secs

     Computing kpt #:    25  of   256
     total cpu time spent up to now is       12.0 secs

     Computing kpt #:    26  of   256
     total cpu time spent up to now is       12.4 secs

     Computing kpt #:    27  of   256
     total cpu time spent up to now is       12.9 secs

     Computing kpt #:    28  of   256
     total cpu time spent up to now is       13.4 secs

     Computing kpt #:    29  of   256
     total cpu time spent up to now is       13.9 secs

     Computing kpt #:    30  of   256
     total cpu time spent up to now is       14.3 secs

     Computing kpt #:    31  of   256
     total cpu time spent up to now is       14.9 secs

     Computing kpt #:    32  of   256
     total cpu time spent up to now is       15.4 secs

     Computing kpt #:    33  of   256
     total cpu time spent up to now is       16.2 secs

     Computing kpt #:    34  of   256
     total cpu time spent up to now is       17.0 secs

     Computing kpt #:    35  of   256
     total cpu time spent up to now is       17.7 secs

     Computing kpt #:    36  of   256
     total cpu time spent up to now is       18.4 secs

     Computing kpt #:    37  of   256
     total cpu time spent up to now is       19.1 secs

     Computing kpt #:    38  of   256
     total cpu time spent up to now is       19.8 secs

     Computing kpt #:    39  of   256
     total cpu time spent up to now is       20.6 secs

     Computing kpt #:    40  of   256
     total cpu time spent up to now is       21.2 secs

     Computing kpt #:    41  of   256
     total cpu time spent up to now is       21.9 secs

     Computing kpt #:    42  of   256
     total cpu time spent up to now is       22.4 secs

     Computing kpt #:    43  of   256
     total cpu time spent up to now is       23.0 secs

     Computing kpt #:    44  of   256
     total cpu time spent up to now is       23.7 secs

     Computing kpt #:    45  of   256
     total cpu time spent up to now is       24.4 secs

     Computing kpt #:    46  of   256
     total cpu time spent up to now is       25.2 secs

     Computing kpt #:    47  of   256
     total cpu time spent up to now is       25.8 secs

     Computing kpt #:    48  of   256
     total cpu time spent up to now is       26.5 secs

     Computing kpt #:    49  of   256
     total cpu time spent up to now is       27.2 secs

     Computing kpt #:    50  of   256
     total cpu time spent up to now is       27.9 secs

     Computing kpt #:    51  of   256
     total cpu time spent up to now is       28.6 secs

     Computing kpt #:    52  of   256
     total cpu time spent up to now is       29.4 secs

     Computing kpt #:    53  of   256
     total cpu time spent up to now is       30.0 secs

     Computing kpt #:    54  of   256
     total cpu time spent up to now is       30.8 secs

     Computing kpt #:    55  of   256
     total cpu time spent up to now is       31.5 secs

     Computing kpt #:    56  of   256
     total cpu time spent up to now is       32.2 secs

     Computing kpt #:    57  of   256
     total cpu time spent up to now is       32.9 secs

     Computing kpt #:    58  of   256
     total cpu time spent up to now is       33.5 secs

     Computing kpt #:    59  of   256
     total cpu time spent up to now is       34.1 secs

     Computing kpt #:    60  of   256
     total cpu time spent up to now is       34.6 secs

     Computing kpt #:    61  of   256
     total cpu time spent up to now is       35.2 secs

     Computing kpt #:    62  of   256
     total cpu time spent up to now is       35.8 secs

     Computing kpt #:    63  of   256
     total cpu time spent up to now is       36.3 secs

     Computing kpt #:    64  of   256
     total cpu time spent up to now is       36.8 secs

     Computing kpt #:    65  of   256
     total cpu time spent up to now is       37.3 secs

     Computing kpt #:    66  of   256
     total cpu time spent up to now is       37.8 secs

     Computing kpt #:    67  of   256
     total cpu time spent up to now is       38.3 secs

     Computing kpt #:    68  of   256
     total cpu time spent up to now is       38.8 secs

     Computing kpt #:    69  of   256
     total cpu time spent up to now is       39.2 secs

     Computing kpt #:    70  of   256
     total cpu time spent up to now is       39.7 secs

     Computing kpt #:    71  of   256
     total cpu time spent up to now is       40.2 secs

     Computing kpt #:    72  of   256
     total cpu time spent up to now is       40.7 secs

     Computing kpt #:    73  of   256
     total cpu time spent up to now is       41.2 secs

     Computing kpt #:    74  of   256
     total cpu time spent up to now is       41.7 secs

     Computing kpt #:    75  of   256
     total cpu time spent up to now is       42.2 secs

     Computing kpt #:    76  of   256
     total cpu time spent up to now is       42.8 secs

     Computing kpt #:    77  of   256
     total cpu time spent up to now is       43.3 secs

     Computing kpt #:    78  of   256
     total cpu time spent up to now is       43.9 secs

     Computing kpt #:    79  of   256
     total cpu time spent up to now is       44.4 secs

     Computing kpt #:    80  of   256
     total cpu time spent up to now is       44.9 secs

     Computing kpt #:    81  of   256
     total cpu time spent up to now is       45.4 secs

     Computing kpt #:    82  of   256
     total cpu time spent up to now is       45.8 secs

     Computing kpt #:    83  of   256
     total cpu time spent up to now is       46.3 secs

     Computing kpt #:    84  of   256
     total cpu time spent up to now is       46.8 secs

     Computing kpt #:    85  of   256
     total cpu time spent up to now is       47.3 secs

     Computing kpt #:    86  of   256
     total cpu time spent up to now is       47.8 secs

     Computing kpt #:    87  of   256
     total cpu time spent up to now is       48.3 secs

     Computing kpt #:    88  of   256
     total cpu time spent up to now is       48.8 secs

     Computing kpt #:    89  of   256
     total cpu time spent up to now is       49.3 secs

     Computing kpt #:    90  of   256
     total cpu time spent up to now is       49.8 secs

     Computing kpt #:    91  of   256
     total cpu time spent up to now is       50.3 secs

     Computing kpt #:    92  of   256
     total cpu time spent up to now is       50.7 secs

     Computing kpt #:    93  of   256
     total cpu time spent up to now is       51.2 secs

     Computing kpt #:    94  of   256
     total cpu time spent up to now is       51.7 secs

     Computing kpt #:    95  of   256
     total cpu time spent up to now is       52.2 secs

     Computing kpt #:    96  of   256
     total cpu time spent up to now is       52.7 secs

     Computing kpt #:    97  of   256
     total cpu time spent up to now is       53.3 secs

     Computing kpt #:    98  of   256
     total cpu time spent up to now is       53.8 secs

     Computing kpt #:    99  of   256
     total cpu time spent up to now is       54.3 secs

     Computing kpt #:   100  of   256
     total cpu time spent up to now is       54.9 secs

     Computing kpt #:   101  of   256
     total cpu time spent up to now is       55.4 secs

     Computing kpt #:   102  of   256
     total cpu time spent up to now is       55.8 secs

     Computing kpt #:   103  of   256
     total cpu time spent up to now is       56.4 secs

     Computing kpt #:   104  of   256
     total cpu time spent up to now is       57.0 secs

     Computing kpt #:   105  of   256
     total cpu time spent up to now is       57.5 secs

     Computing kpt #:   106  of   256
     total cpu time spent up to now is       58.0 secs

     Computing kpt #:   107  of   256
     total cpu time spent up to now is       58.6 secs

     Computing kpt #:   108  of   256
     total cpu time spent up to now is       59.1 secs

     Computing kpt #:   109  of   256
     total cpu time spent up to now is       59.6 secs

     Computing kpt #:   110  of   256
     total cpu time spent up to now is       60.1 secs

     Computing kpt #:   111  of   256
     total cpu time spent up to now is       60.6 secs

     Computing kpt #:   112  of   256
     total cpu time spent up to now is       61.1 secs

     Computing kpt #:   113  of   256
     total cpu time spent up to now is       61.6 secs

     Computing kpt #:   114  of   256
     total cpu time spent up to now is       62.0 secs

     Computing kpt #:   115  of   256
     total cpu time spent up to now is       62.5 secs

     Computing kpt #:   116  of   256
     total cpu time spent up to now is       63.0 secs

     Computing kpt #:   117  of   256
     total cpu time spent up to now is       63.4 secs

     Computing kpt #:   118  of   256
     total cpu time spent up to now is       63.9 secs

     Computing kpt #:   119  of   256
     total cpu time spent up to now is       64.4 secs

     Computing kpt #:   120  of   256
     total cpu time spent up to now is       64.8 secs

     Computing kpt #:   121  of   256
     total cpu time spent up to now is       65.3 secs

     Computing kpt #:   122  of   256
     total cpu time spent up to now is       65.8 secs

     Computing kpt #:   123  of   256
     total cpu time spent up to now is       66.3 secs

     Computing kpt #:   124  of   256
     total cpu time spent up to now is       66.8 secs

     Computing kpt #:   125  of   256
     total cpu time spent up to now is       67.2 secs

     Computing kpt #:   126  of   256
     total cpu time spent up to now is       67.7 secs

     Computing kpt #:   127  of   256
     total cpu time spent up to now is       68.2 secs

     Computing kpt #:   128  of   256
     total cpu time spent up to now is       68.6 secs

     Computing kpt #:   129  of   256
     total cpu time spent up to now is       69.1 secs

     Computing kpt #:   130  of   256
     total cpu time spent up to now is       69.5 secs

     Computing kpt #:   131  of   256
     total cpu time spent up to now is       70.0 secs

     Computing kpt #:   132  of   256
     total cpu time spent up to now is       70.5 secs

     Computing kpt #:   133  of   256
     total cpu time spent up to now is       70.9 secs

     Computing kpt #:   134  of   256
     total cpu time spent up to now is       71.4 secs

     Computing kpt #:   135  of   256
     total cpu time spent up to now is       71.9 secs

     Computing kpt #:   136  of   256
     total cpu time spent up to now is       72.4 secs

     Computing kpt #:   137  of   256
     total cpu time spent up to now is       72.9 secs

     Computing kpt #:   138  of   256
     total cpu time spent up to now is       73.3 secs

     Computing kpt #:   139  of   256
     total cpu time spent up to now is       73.8 secs

     Computing kpt #:   140  of   256
     total cpu time spent up to now is       74.3 secs

     Computing kpt #:   141  of   256
     total cpu time spent up to now is       74.7 secs

     Computing kpt #:   142  of   256
     total cpu time spent up to now is       75.2 secs

     Computing kpt #:   143  of   256
     total cpu time spent up to now is       75.7 secs

     Computing kpt #:   144  of   256
     total cpu time spent up to now is       76.1 secs

     Computing kpt #:   145  of   256
     total cpu time spent up to now is       76.6 secs

     Computing kpt #:   146  of   256
     total cpu time spent up to now is       77.0 secs

     Computing kpt #:   147  of   256
     total cpu time spent up to now is       77.5 secs

     Computing kpt #:   148  of   256
     total cpu time spent up to now is       78.0 secs

     Computing kpt #:   149  of   256
     total cpu time spent up to now is       78.5 secs

     Computing kpt #:   150  of   256
     total cpu time spent up to now is       79.0 secs

     Computing kpt #:   151  of   256
     total cpu time spent up to now is       79.4 secs

     Computing kpt #:   152  of   256
     total cpu time spent up to now is       79.9 secs

     Computing kpt #:   153  of   256
     total cpu time spent up to now is       80.4 secs

     Computing kpt #:   154  of   256
     total cpu time spent up to now is       80.8 secs

     Computing kpt #:   155  of   256
     total cpu time spent up to now is       81.3 secs

     Computing kpt #:   156  of   256
     total cpu time spent up to now is       81.8 secs

     Computing kpt #:   157  of   256
     total cpu time spent up to now is       82.3 secs

     Computing kpt #:   158  of   256
     total cpu time spent up to now is       82.7 secs

     Computing kpt #:   159  of   256
     total cpu time spent up to now is       83.2 secs

     Computing kpt #:   160  of   256
     total cpu time spent up to now is       83.7 secs

     Computing kpt #:   161  of   256
     total cpu time spent up to now is       84.2 secs

     Computing kpt #:   162  of   256
     total cpu time spent up to now is       84.8 secs

     Computing kpt #:   163  of   256
     total cpu time spent up to now is       85.2 secs

     Computing kpt #:   164  of   256
     total cpu time spent up to now is       85.7 secs

     Computing kpt #:   165  of   256
     total cpu time spent up to now is       86.1 secs

     Computing kpt #:   166  of   256
     total cpu time spent up to now is       86.6 secs

     Computing kpt #:   167  of   256
     total cpu time spent up to now is       87.1 secs

     Computing kpt #:   168  of   256
     total cpu time spent up to now is       87.6 secs

     Computing kpt #:   169  of   256
     total cpu time spent up to now is       88.1 secs

     Computing kpt #:   170  of   256
     total cpu time spent up to now is       88.6 secs

     Computing kpt #:   171  of   256
     total cpu time spent up to now is       89.1 secs

     Computing kpt #:   172  of   256
     total cpu time spent up to now is       89.6 secs

     Computing kpt #:   173  of   256
     total cpu time spent up to now is       90.0 secs

     Computing kpt #:   174  of   256
     total cpu time spent up to now is       90.5 secs

     Computing kpt #:   175  of   256
     total cpu time spent up to now is       91.0 secs

     Computing kpt #:   176  of   256
     total cpu time spent up to now is       91.5 secs

     Computing kpt #:   177  of   256
     total cpu time spent up to now is       92.1 secs

     Computing kpt #:   178  of   256
     total cpu time spent up to now is       92.6 secs

     Computing kpt #:   179  of   256
     total cpu time spent up to now is       93.1 secs

     Computing kpt #:   180  of   256
     total cpu time spent up to now is       93.6 secs

     Computing kpt #:   181  of   256
     total cpu time spent up to now is       94.1 secs

     Computing kpt #:   182  of   256
     total cpu time spent up to now is       94.6 secs

     Computing kpt #:   183  of   256
     total cpu time spent up to now is       95.1 secs

     Computing kpt #:   184  of   256
     total cpu time spent up to now is       95.6 secs

     Computing kpt #:   185  of   256
     total cpu time spent up to now is       96.1 secs

     Computing kpt #:   186  of   256
     total cpu time spent up to now is       96.6 secs

     Computing kpt #:   187  of   256
     total cpu time spent up to now is       97.1 secs

     Computing kpt #:   188  of   256
     total cpu time spent up to now is       97.5 secs

     Computing kpt #:   189  of   256
     total cpu time spent up to now is       98.0 secs

     Computing kpt #:   190  of   256
     total cpu time spent up to now is       98.5 secs

     Computing kpt #:   191  of   256
     total cpu time spent up to now is       98.9 secs

     Computing kpt #:   192  of   256
     total cpu time spent up to now is       99.4 secs

     Computing kpt #:   193  of   256
     total cpu time spent up to now is       99.9 secs

     Computing kpt #:   194  of   256
     total cpu time spent up to now is      100.4 secs

     Computing kpt #:   195  of   256
     total cpu time spent up to now is      100.8 secs

     Computing kpt #:   196  of   256
     total cpu time spent up to now is      101.3 secs

     Computing kpt #:   197  of   256
     total cpu time spent up to now is      101.8 secs

     Computing kpt #:   198  of   256
     total cpu time spent up to now is      102.2 secs

     Computing kpt #:   199  of   256
     total cpu time spent up to now is      102.7 secs

     Computing kpt #:   200  of   256
     total cpu time spent up to now is      103.2 secs

     Computing kpt #:   201  of   256
     total cpu time spent up to now is      103.7 secs

     Computing kpt #:   202  of   256
     total cpu time spent up to now is      104.2 secs

     Computing kpt #:   203  of   256
     total cpu time spent up to now is      104.7 secs

     Computing kpt #:   204  of   256
     total cpu time spent up to now is      105.2 secs

     Computing kpt #:   205  of   256
     total cpu time spent up to now is      105.6 secs

     Computing kpt #:   206  of   256
     total cpu time spent up to now is      106.1 secs

     Computing kpt #:   207  of   256
     total cpu time spent up to now is      106.6 secs

     Computing kpt #:   208  of   256
     total cpu time spent up to now is      107.1 secs

     Computing kpt #:   209  of   256
     total cpu time spent up to now is      107.6 secs

     Computing kpt #:   210  of   256
     total cpu time spent up to now is      108.1 secs

     Computing kpt #:   211  of   256
     total cpu time spent up to now is      108.5 secs

     Computing kpt #:   212  of   256
     total cpu time spent up to now is      109.1 secs

     Computing kpt #:   213  of   256
     total cpu time spent up to now is      109.6 secs

     Computing kpt #:   214  of   256
     total cpu time spent up to now is      110.1 secs

     Computing kpt #:   215  of   256
     total cpu time spent up to now is      110.6 secs

     Computing kpt #:   216  of   256
     total cpu time spent up to now is      111.1 secs

     Computing kpt #:   217  of   256
     total cpu time spent up to now is      111.6 secs

     Computing kpt #:   218  of   256
     total cpu time spent up to now is      112.1 secs

     Computing kpt #:   219  of   256
     total cpu time spent up to now is      112.7 secs

     Computing kpt #:   220  of   256
     total cpu time spent up to now is      113.2 secs

     Computing kpt #:   221  of   256
     total cpu time spent up to now is      113.7 secs

     Computing kpt #:   222  of   256
     total cpu time spent up to now is      114.1 secs

     Computing kpt #:   223  of   256
     total cpu time spent up to now is      114.6 secs

     Computing kpt #:   224  of   256
     total cpu time spent up to now is      115.1 secs

     Computing kpt #:   225  of   256
     total cpu time spent up to now is      115.5 secs

     Computing kpt #:   226  of   256
     total cpu time spent up to now is      116.0 secs

     Computing kpt #:   227  of   256
     total cpu time spent up to now is      116.5 secs

     Computing kpt #:   228  of   256
     total cpu time spent up to now is      116.9 secs

     Computing kpt #:   229  of   256
     total cpu time spent up to now is      117.4 secs

     Computing kpt #:   230  of   256
     total cpu time spent up to now is      117.9 secs

     Computing kpt #:   231  of   256
     total cpu time spent up to now is      118.4 secs

     Computing kpt #:   232  of   256
     total cpu time spent up to now is      118.9 secs

     Computing kpt #:   233  of   256
     total cpu time spent up to now is      119.4 secs

     Computing kpt #:   234  of   256
     total cpu time spent up to now is      119.9 secs

     Computing kpt #:   235  of   256
     total cpu time spent up to now is      120.4 secs

     Computing kpt #:   236  of   256
     total cpu time spent up to now is      120.9 secs

     Computing kpt #:   237  of   256
     total cpu time spent up to now is      121.4 secs

     Computing kpt #:   238  of   256
     total cpu time spent up to now is      121.9 secs

     Computing kpt #:   239  of   256
     total cpu time spent up to now is      122.4 secs

     Computing kpt #:   240  of   256
     total cpu time spent up to now is      123.0 secs

     Computing kpt #:   241  of   256
     total cpu time spent up to now is      123.5 secs

     Computing kpt #:   242  of   256
     total cpu time spent up to now is      123.9 secs

     Computing kpt #:   243  of   256
     total cpu time spent up to now is      124.4 secs

     Computing kpt #:   244  of   256
     total cpu time spent up to now is      124.9 secs

     Computing kpt #:   245  of   256
     total cpu time spent up to now is      125.4 secs

     Computing kpt #:   246  of   256
     total cpu time spent up to now is      125.8 secs

     Computing kpt #:   247  of   256
     total cpu time spent up to now is      126.3 secs

     Computing kpt #:   248  of   256
     total cpu time spent up to now is      126.8 secs

     Computing kpt #:   249  of   256
     total cpu time spent up to now is      127.2 secs

     Computing kpt #:   250  of   256
     total cpu time spent up to now is      127.7 secs

     Computing kpt #:   251  of   256
     total cpu time spent up to now is      128.2 secs

     Computing kpt #:   252  of   256
     total cpu time spent up to now is      128.6 secs

     Computing kpt #:   253  of   256
     total cpu time spent up to now is      129.1 secs

     Computing kpt #:   254  of   256
     total cpu time spent up to now is      129.5 secs

     Computing kpt #:   255  of   256
     total cpu time spent up to now is      130.0 secs

     Computing kpt #:   256  of   256
     total cpu time spent up to now is      130.5 secs

     ethr =  3.85E-10,  avg # of iterations = 34.5

     total cpu time spent up to now is      130.5 secs

     End of band structure calculation

          k = 0.0000 0.0000 0.0000 (  2109 PWs)   bands (ev):

  -117.6816 -71.8363 -71.8363 -71.8363  -5.7906   0.9385   0.9385   0.9385
     1.4083   1.4083   7.2019   7.2019   7.2019   9.2189  13.6423  13.6423
    13.6423

     occupation numbers 
     1.0000   1.0000   1.0000   1.0000   1.0000   1.0000   1.0000   1.0000
     1.0000   1.0000   1.0000   1.0000   1.0000   0.0000   0.0000   0.0000
     0.0000

          k =-0.0500 0.0500-0.0500 (  2097 PWs)   bands (ev):

  -117.6816 -71.8363 -71.8363 -71.8363  -5.7722   0.9387   0.9421   0.9421
     1.4086   1.4086   6.9621   7.1777   7.1777   9.4198  13.6057  13.6864
    13.6864

     occupation numbers 
     1.0000   1.0000   1.0000   1.0000   1.0000   1.0000   1.0000   1.0000
     1.0000   1.0000   1.0000   1.0000   1.0000   0.0000   0.0000   0.0000
     0.0000

          k =-0.1000 0.1000-0.1000 (  2118 PWs)   bands (ev):

  -117.6816 -71.8363 -71.8363 -71.8363  -5.7179   0.9393   0.9515   0.9515
[...]
    17.2044

     occupation numbers 
     1.0000   1.0000   1.0000   1.0000   1.0000   1.0000   1.0000   1.0000
     1.0000   1.0000   1.0000   1.0000   1.0000   0.0000   0.0000   0.0000
     0.0000

          k = 0.6500-0.1500 0.8500 (  2140 PWs)   bands (ev):

  -117.6816 -71.8364 -71.8364 -71.8364  -4.6671   1.0437   1.1763   1.3091
     1.4328   1.6828   2.7384   4.4741   5.3378  11.8917  13.1367  15.1724
    16.9120

     occupation numbers 
     1.0000   1.0000   1.0000   1.0000   1.0000   1.0000   1.0000   1.0000
     1.0000   1.0000   1.0000   1.0000   1.0000   0.0000   0.0000   0.0000
     0.0000

          k = 0.6000-0.1000 0.8000 (  2147 PWs)   bands (ev):

  -117.6816 -71.8364 -71.8364 -71.8364  -4.6587   1.0554   1.1708   1.3446
     1.4154   1.7229   2.6656   4.3250   5.4189  12.0037  13.4337  15.2004
    16.6391

     occupation numbers 
     1.0000   1.0000   1.0000   1.0000   1.0000   1.0000   1.0000   1.0000
     1.0000   1.0000   1.0000   1.0000   1.0000   0.0000   0.0000   0.0000
     0.0000

          k = 0.5500-0.0500 0.7500 (  2142 PWs)   bands (ev):

  -117.6816 -71.8364 -71.8364 -71.8364  -4.6821   1.0632   1.1557   1.3633
     1.4037   1.6767   2.7377   4.2735   5.5528  12.1420  13.5707  14.9391
    16.6544

     occupation numbers 
     1.0000   1.0000   1.0000   1.0000   1.0000   1.0000   1.0000   1.0000
     1.0000   1.0000   1.0000   1.0000   1.0000   0.0000   0.0000   0.0000
     0.0000

          k = 0.5000-0.0000 0.7000 (  2146 PWs)   bands (ev):

  -117.6816 -71.8364 -71.8364 -71.8364  -4.7340   1.0683   1.1320   1.3427
     1.4103   1.5878   2.8855   4.3589   5.7226  12.2712  13.5685  14.5094
    16.6405

     occupation numbers 
     1.0000   1.0000   1.0000   1.0000   1.0000   1.0000   1.0000   1.0000
     1.0000   1.0000   1.0000   1.0000   1.0000   0.0000   0.0000   0.0000
     0.0000

          k = 0.8000-0.2000 1.0000 (  2139 PWs)   bands (ev):

  -117.6816 -71.8364 -71.8364 -71.8364  -4.7218   0.9725   1.1941   1.2412
     1.4604   1.5352   3.0908   4.9719   5.2038  11.4420  11.9113  15.9666
    18.0036

     occupation numbers 
     1.0000   1.0000   1.0000   1.0000   1.0000   1.0000   1.0000   1.0000
     1.0000   1.0000   1.0000   1.0000   1.0000   0.0000   0.0000   0.0000
     0.0000

          k = 0.7500-0.1500 0.9500 (  2144 PWs)   bands (ev):

  -117.6816 -71.8364 -71.8364 -71.8364  -4.6662   0.9996   1.2011   1.2664
     1.4539   1.6123   2.9083   4.7479   5.1212  11.5865  12.1975  15.8630
    17.6755

     occupation numbers 
     1.0000   1.0000   1.0000   1.0000   1.0000   1.0000   1.0000   1.0000
     1.0000   1.0000   1.0000   1.0000   1.0000   0.0000   0.0000   0.0000
     0.0000

          k = 0.7000-0.1000 0.9000 (  2142 PWs)   bands (ev):

  -117.6816 -71.8364 -71.8364 -71.8364  -4.6322   1.0243   1.2045   1.2919
     1.4421   1.6934   2.7712   4.4924   5.1386  11.6974  12.6630  15.7928
    17.1227

     occupation numbers 
     1.0000   1.0000   1.0000   1.0000   1.0000   1.0000   1.0000   1.0000
     1.0000   1.0000   1.0000   1.0000   1.0000   0.0000   0.0000   0.0000
     0.0000

          k = 0.6500-0.0500 0.8500 (  2150 PWs)   bands (ev):

  -117.6816 -71.8364 -71.8364 -71.8364  -4.6236   1.0423   1.1982   1.3211
     1.4262   1.7440   2.7040   4.2854   5.2279  11.8253  13.1479  15.7264
    16.5636

     occupation numbers 
     1.0000   1.0000   1.0000   1.0000   1.0000   1.0000   1.0000   1.0000
     1.0000   1.0000   1.0000   1.0000   1.0000   0.0000   0.0000   0.0000
     0.0000

          k = 0.6000 0.0000 0.8000 (  2144 PWs)   bands (ev):

  -117.6816 -71.8364 -71.8364 -71.8364  -4.6410   1.0549   1.1812   1.3501
     1.4103   1.7353   2.7077   4.1949   5.3714  11.9814  13.4958  15.3879
    16.4516

     occupation numbers 
     1.0000   1.0000   1.0000   1.0000   1.0000   1.0000   1.0000   1.0000
     1.0000   1.0000   1.0000   1.0000   1.0000   0.0000   0.0000   0.0000
     0.0000

          k = 0.8000-0.1000 1.0000 (  2131 PWs)   bands (ev):

  -117.6816 -71.8365 -71.8364 -71.8364  -4.6331   0.9769   1.2270   1.2671
     1.4623   1.6318   2.8296   4.8772   4.9912  11.2916  11.8310  16.6644
    17.9264

     occupation numbers 
     1.0000   1.0000   1.0000   1.0000   1.0000   1.0000   1.0000   1.0000
     1.0000   1.0000   1.0000   1.0000   1.0000   0.0000   0.0000   0.0000
     0.0000

          k = 0.7500-0.0500 0.9500 (  2144 PWs)   bands (ev):

  -117.6816 -71.8365 -71.8364 -71.8364  -4.6095   1.0007   1.2263   1.2816
     1.4523   1.6950   2.7448   4.6578   4.9824  11.4887  12.1491  16.5641
    17.2806

     occupation numbers 
     1.0000   1.0000   1.0000   1.0000   1.0000   1.0000   1.0000   1.0000
     1.0000   1.0000   1.0000   1.0000   1.0000   0.0000   0.0000   0.0000
     0.0000

          k = 0.7000 0.0000 0.9000 (  2148 PWs)   bands (ev):

  -117.6816 -71.8364 -71.8364 -71.8364  -4.6064   1.0239   1.2175   1.2987
     1.4396   1.7365   2.7128   4.4206   5.0771  11.6533  12.6450  16.3897
    16.6226

     occupation numbers 
     1.0000   1.0000   1.0000   1.0000   1.0000   1.0000   1.0000   1.0000
     1.0000   1.0000   1.0000   1.0000   1.0000   0.0000   0.0000   0.0000
     0.0000

          k =-0.2000-1.0000 0.0000 (  2134 PWs)   bands (ev):

  -117.6816 -71.8365 -71.8364 -71.8364  -4.6020   0.9780   1.2401   1.2751
     1.4622   1.6801   2.7250   4.8789   4.8838  11.2401  11.8008  17.1762
    17.5965

     occupation numbers 
     1.0000   1.0000   1.0000   1.0000   1.0000   1.0000   1.0000   1.0000
     1.0000   1.0000   1.0000   1.0000   1.0000   0.0000   0.0000   0.0000
     0.0000

          k =-0.3000 0.6000-0.0000 (  2124 PWs)   bands (ev):

  -117.6816 -71.8364 -71.8364 -71.8364  -4.9645   1.0098   1.0936   1.1696
     1.4118   1.4585   3.5800   5.1115   5.9934  12.2285  12.6307  14.2733
    16.2510

     occupation numbers 
     1.0000   1.0000   1.0000   1.0000   1.0000   1.0000   1.0000   1.0000
     1.0000   1.0000   1.0000   1.0000   1.0000   0.0000   0.0000   0.0000
     0.0000

          k = 0.6500-0.3500 0.9500 (  2130 PWs)   bands (ev):

  -117.6816 -71.8364 -71.8364 -71.8364  -4.8641   1.0424   1.1033   1.2267
     1.4276   1.4815   3.2619   4.8730   5.8381  12.3184  12.9127  14.1862
    16.4979

     occupation numbers 
     1.0000   1.0000   1.0000   1.0000   1.0000   1.0000   1.0000   1.0000
     1.0000   1.0000   1.0000   1.0000   1.0000   0.0000   0.0000   0.0000
     0.0000

          k = 0.6000-0.3000 0.9000 (  2136 PWs)   bands (ev):

  -117.6816 -71.8364 -71.8364 -71.8364  -4.7818   1.0608   1.1174   1.2886
     1.4291   1.5435   2.9415   4.7270   5.6968  12.3287  13.1158  14.3596
    16.5791

     occupation numbers 
     1.0000   1.0000   1.0000   1.0000   1.0000   1.0000   1.0000   1.0000
     1.0000   1.0000   1.0000   1.0000   1.0000   0.0000   0.0000   0.0000
     0.0000

          k = 0.5500-0.2500 0.8500 (  2142 PWs)   bands (ev):

  -117.6816 -71.8364 -71.8364 -71.8364  -4.7276   1.0664   1.1301   1.3378
     1.4193   1.6372   2.6763   4.6537   5.5978  12.3326  13.1465  14.7142
    16.5984

     occupation numbers 
     1.0000   1.0000   1.0000   1.0000   1.0000   1.0000   1.0000   1.0000
     1.0000   1.0000   1.0000   1.0000   1.0000   0.0000   0.0000   0.0000
     0.0000

          k = 0.5000-0.2000 0.8000 (  2140 PWs)   bands (ev):

  -117.6816 -71.8364 -71.8364 -71.8364  -4.7087   1.0675   1.1348   1.3597
     1.4102   1.6916   2.5632   4.6321   5.5621  12.3348  13.1390  14.9018
    16.6054

     occupation numbers 
     1.0000   1.0000   1.0000   1.0000   1.0000   1.0000   1.0000   1.0000
     1.0000   1.0000   1.0000   1.0000   1.0000   0.0000   0.0000   0.0000
     0.0000

          k = 0.7000-0.3000 1.0000 (  2131 PWs)   bands (ev):

  -117.6816 -71.8364 -71.8364 -71.8364  -4.8213   1.0187   1.1301   1.2292
     1.4409   1.4927   3.2606   4.8787   5.5789  12.3053  12.3763  14.5568
    17.1387

     occupation numbers 
     1.0000   1.0000   1.0000   1.0000   1.0000   1.0000   1.0000   1.0000
     1.0000   1.0000   1.0000   1.0000   1.0000   0.0000   0.0000   0.0000
     0.0000

          k = 0.6500-0.2500 0.9500 (  2141 PWs)   bands (ev):

  -117.6816 -71.8364 -71.8364 -71.8364  -4.7441   1.0450   1.1412   1.2739
     1.4371   1.5597   3.0162   4.6717   5.4298  12.3398  12.7669  14.4869
    17.2304

     occupation numbers 
     1.0000   1.0000   1.0000   1.0000   1.0000   1.0000   1.0000   1.0000
     1.0000   1.0000   1.0000   1.0000   1.0000   0.0000   0.0000   0.0000
     0.0000

          k = 0.6000-0.2000 0.9000 (  2147 PWs)   bands (ev):

  -117.6816 -71.8364 -71.8364 -71.8364  -4.6898   1.0599   1.1536   1.3161
     1.4237   1.6486   2.7971   4.5270   5.3312  12.3763  13.0862  14.5924
    16.9593

     occupation numbers 
     1.0000   1.0000   1.0000   1.0000   1.0000   1.0000   1.0000   1.0000
     1.0000   1.0000   1.0000   1.0000   1.0000   0.0000   0.0000   0.0000
     0.0000

          k = 0.5500-0.1500 0.8500 (  2149 PWs)   bands (ev):

  -117.6816 -71.8364 -71.8364 -71.8364  -4.6652   1.0666   1.1590   1.3515
     1.4047   1.7151   2.6680   4.4344   5.3101  12.4380  13.2229  14.7938
    16.6458

     occupation numbers 
     1.0000   1.0000   1.0000   1.0000   1.0000   1.0000   1.0000   1.0000
     1.0000   1.0000   1.0000   1.0000   1.0000   0.0000   0.0000   0.0000
     0.0000

          k = 0.5000-0.1000 0.8000 (  2151 PWs)   bands (ev):

  -117.6816 -71.8364 -71.8364 -71.8364  -4.6733   1.0698   1.1530   1.3594
     1.3988   1.6979   2.6975   4.3990   5.3699  12.5114  13.2478  14.7061
    16.6654

     occupation numbers 
     1.0000   1.0000   1.0000   1.0000   1.0000   1.0000   1.0000   1.0000
     1.0000   1.0000   1.0000   1.0000   1.0000   0.0000   0.0000   0.0000
     0.0000

          k = 0.4500-0.0500 0.7500 (  2144 PWs)   bands (ev):

  -117.6816 -71.8364 -71.8364 -71.8364  -4.7130   1.0710   1.1362   1.3281
     1.4156   1.6151   2.8589   4.4441   5.4953  12.5706  13.2049  14.3421
    16.9342

     occupation numbers 
     1.0000   1.0000   1.0000   1.0000   1.0000   1.0000   1.0000   1.0000
     1.0000   1.0000   1.0000   1.0000   1.0000   0.0000   0.0000   0.0000
     0.0000

          k = 0.4000 0.0000 0.7000 (  2139 PWs)   bands (ev):

  -117.6816 -71.8364 -71.8364 -71.8364  -4.7792   1.0645   1.1154   1.2814
     1.4269   1.5327   3.0650   4.5985   5.6611  12.5566  13.0400  14.1244
    16.9265

     occupation numbers 
     1.0000   1.0000   1.0000   1.0000   1.0000   1.0000   1.0000   1.0000
     1.0000   1.0000   1.0000   1.0000   1.0000   0.0000   0.0000   0.0000
     0.0000

          k = 0.7000-0.2000 1.0000 (  2149 PWs)   bands (ev):

  -117.6816 -71.8364 -71.8364 -71.8364  -4.7041   1.0217   1.1710   1.2679
     1.4455   1.5828   2.9930   4.7253   5.2030  12.0634  12.3750  15.0858
    17.6322

     occupation numbers 
     1.0000   1.0000   1.0000   1.0000   1.0000   1.0000   1.0000   1.0000
     1.0000   1.0000   1.0000   1.0000   1.0000   0.0000   0.0000   0.0000
     0.0000

          k = 0.6500-0.1500 0.9500 (  2153 PWs)   bands (ev):

  -117.6816 -71.8364 -71.8364 -71.8364  -4.6551   1.0433   1.1809   1.2987
     1.4319   1.6659   2.8341   4.5490   5.0840  12.2105  12.7377  15.0172
    17.0908

     occupation numbers 
     1.0000   1.0000   1.0000   1.0000   1.0000   1.0000   1.0000   1.0000
     1.0000   1.0000   1.0000   1.0000   1.0000   0.0000   0.0000   0.0000
     0.0000

          k = 0.6000-0.1000 0.9000 (  2154 PWs)   bands (ev):

  -117.6816 -71.8364 -71.8364 -71.8364  -4.6303   1.0573   1.1863   1.3294
     1.4127   1.7344   2.7283   4.3883   5.0711  12.3092  13.1366  15.0341
    16.4902

     occupation numbers 
     1.0000   1.0000   1.0000   1.0000   1.0000   1.0000   1.0000   1.0000
     1.0000   1.0000   1.0000   1.0000   1.0000   0.0000   0.0000   0.0000
     0.0000

          k = 0.5500-0.0500 0.8500 (  2146 PWs)   bands (ev):

  -117.6816 -71.8364 -71.8364 -71.8364  -4.6325   1.0658   1.1798   1.3597
     1.3917   1.7467   2.7116   4.2861   5.1538  12.4233  13.3728  14.9402
    16.2455

     occupation numbers 
     1.0000   1.0000   1.0000   1.0000   1.0000   1.0000   1.0000   1.0000
     1.0000   1.0000   1.0000   1.0000   1.0000   0.0000   0.0000   0.0000
     0.0000

          k = 0.5000 0.0000 0.8000 (  2150 PWs)   bands (ev):

  -117.6816 -71.8364 -71.8364 -71.8364  -4.6612   1.0707   1.1607   1.3584
     1.3950   1.6940   2.7731   4.2940   5.3043  12.5378  13.3861  14.5720
    16.5878

     occupation numbers 
     1.0000   1.0000   1.0000   1.0000   1.0000   1.0000   1.0000   1.0000
     1.0000   1.0000   1.0000   1.0000   1.0000   0.0000   0.0000   0.0000
     0.0000

          k = 0.7000-0.1000 1.0000 (  2154 PWs)   bands (ev):

  -117.6816 -71.8364 -71.8364 -71.8364  -4.6272   1.0217   1.2065   1.2878
     1.4421   1.6836   2.7986   4.6699   4.9101  11.9070  12.3438  15.7559
    17.1699

     occupation numbers 
     1.0000   1.0000   1.0000   1.0000   1.0000   1.0000   1.0000   1.0000
     1.0000   1.0000   1.0000   1.0000   1.0000   0.0000   0.0000   0.0000
     0.0000

          k = 0.6500-0.0500 0.9500 (  2155 PWs)   bands (ev):

  -117.6816 -71.8364 -71.8364 -71.8364  -4.6077   1.0414   1.2089   1.3081
     1.4259   1.7427   2.7322   4.5046   4.8711  12.1218  12.7237  15.6814
    16.4382

     occupation numbers 
     1.0000   1.0000   1.0000   1.0000   1.0000   1.0000   1.0000   1.0000
     1.0000   1.0000   1.0000   1.0000   1.0000   0.0000   0.0000   0.0000
     0.0000

          k = 0.6000 0.0000 0.9000 (  2149 PWs)   bands (ev):

  -117.6816 -71.8364 -71.8364 -71.8364  -4.6097   1.0562   1.2007   1.3331
     1.4078   1.7663   2.7122   4.3355   4.9776  12.2756  13.1560  15.4441
    16.0172

     occupation numbers 
     1.0000   1.0000   1.0000   1.0000   1.0000   1.0000   1.0000   1.0000
     1.0000   1.0000   1.0000   1.0000   1.0000   0.0000   0.0000   0.0000
     0.0000

          k =-0.3000-1.0000 0.0000 (  2162 PWs)   bands (ev):

  -117.6816 -71.8365 -71.8364 -71.8364  -4.6003   1.0210   1.2214   1.2930
     1.4398   1.7301   2.7225   4.7253   4.7328  11.8534  12.3286  16.4577
    16.5081

     occupation numbers 
     1.0000   1.0000   1.0000   1.0000   1.0000   1.0000   1.0000   1.0000
     1.0000   1.0000   1.0000   1.0000   1.0000   0.0000   0.0000   0.0000
     0.0000

          k = 0.6000-0.2000 1.0000 (  2148 PWs)   bands (ev):

  -117.6816 -71.8364 -71.8364 -71.8364  -4.6830   1.0619   1.1555   1.3109
     1.4226   1.6381   2.8779   4.4831   5.2386  12.6801  12.8532  14.4345
    17.0727

     occupation numbers 
     1.0000   1.0000   1.0000   1.0000   1.0000   1.0000   1.0000   1.0000
     1.0000   1.0000   1.0000   1.0000   1.0000   0.0000   0.0000   0.0000
     0.0000

          k = 0.5500-0.1500 0.9500 (  2160 PWs)   bands (ev):

  -117.6816 -71.8364 -71.8364 -71.8364  -4.6433   1.0687   1.1715   1.3427
     1.4008   1.7157   2.7594   4.3834   5.0952  12.7280  13.1164  14.5751
    16.4965

     occupation numbers 
     1.0000   1.0000   1.0000   1.0000   1.0000   1.0000   1.0000   1.0000
     1.0000   1.0000   1.0000   1.0000   1.0000   0.0000   0.0000   0.0000
     0.0000

          k = 0.5000-0.1000 0.9000 (  2156 PWs)   bands (ev):

  -117.6816 -71.8364 -71.8364 -71.8364  -4.6295   1.0702   1.1785   1.3675
     1.3794   1.7510   2.7094   4.3546   5.0412  12.7349  13.2082  14.7379
    16.1772

     occupation numbers 
     1.0000   1.0000   1.0000   1.0000   1.0000   1.0000   1.0000   1.0000
     1.0000   1.0000   1.0000   1.0000   1.0000   0.0000   0.0000   0.0000
     0.0000

          k = 0.6000-0.1000 1.0000 (  2163 PWs)   bands (ev):

  -117.6816 -71.8364 -71.8364 -71.8364  -4.6206   1.0580   1.1925   1.3221
     1.4119   1.7333   2.7605   4.4810   4.8722  12.5850  12.8684  14.9633
    16.4143

     occupation numbers 
     1.0000   1.0000   1.0000   1.0000   1.0000   1.0000   1.0000   1.0000
     1.0000   1.0000   1.0000   1.0000   1.0000   0.0000   0.0000   0.0000
     0.0000

          k = 0.5500-0.0500 0.9500 (  2156 PWs)   bands (ev):

  -117.6816 -71.8364 -71.8364 -71.8364  -4.6066   1.0666   1.1987   1.3462
     1.3895   1.7732   2.7225   4.4203   4.7975  12.7336  13.1451  14.9877
    15.8297

     occupation numbers 
     1.0000   1.0000   1.0000   1.0000   1.0000   1.0000   1.0000   1.0000
     1.0000   1.0000   1.0000   1.0000   1.0000   0.0000   0.0000   0.0000
     0.0000

          k = 0.5000 0.0000 0.9000 (  2152 PWs)   bands (ev):

  -117.6816 -71.8364 -71.8364 -71.8364  -4.6145   1.0702   1.1905   1.3664
     1.3743   1.7651   2.7279   4.3589   4.8978  12.7958  13.2377  14.7789
    15.9189

     occupation numbers 
     1.0000   1.0000   1.0000   1.0000   1.0000   1.0000   1.0000   1.0000
     1.0000   1.0000   1.0000   1.0000   1.0000   0.0000   0.0000   0.0000
     0.0000

          k =-0.4000-1.0000 0.0000 (  2162 PWs)   bands (ev):

  -117.6816 -71.8364 -71.8364 -71.8364  -4.5989   1.0563   1.2094   1.3236
     1.4073   1.7717   2.7204   4.6061   4.6152  12.5381  12.8800  15.5270
    15.7869

     occupation numbers 
     1.0000   1.0000   1.0000   1.0000   1.0000   1.0000   1.0000   1.0000
     1.0000   1.0000   1.0000   1.0000   1.0000   0.0000   0.0000   0.0000
     0.0000

          k =-0.5000-1.0000 0.0000 (  2148 PWs)   bands (ev):

  -117.6816 -71.8364 -71.8364 -71.8364  -4.5984   1.0697   1.2053   1.3583
     1.3738   1.7882   2.7197   4.5616   4.5712  12.9257  13.1581  15.0400
    15.4687

     occupation numbers 
     1.0000   1.0000   1.0000   1.0000   1.0000   1.0000   1.0000   1.0000
     1.0000   1.0000   1.0000   1.0000   1.0000   0.0000   0.0000   0.0000
     0.0000

     highest occupied, lowest unoccupied level (ev):     7.2019    9.2189

     Writing all to output data dir ./SCRATCH/zns.save/

     init_run     :      0.08s CPU      0.11s WALL (       1 calls)
     electrons    :    127.91s CPU    130.29s WALL (       1 calls)

     Called by init_run:
     wfcinit      :      0.00s CPU      0.00s WALL (       1 calls)
     wfcinit:wfcr :      3.92s CPU      4.11s WALL (     256 calls)
     potinit      :      0.00s CPU      0.03s WALL (       1 calls)
     hinit0       :      0.03s CPU      0.03s WALL (       1 calls)

     Called by electrons:
     c_bands      :    127.91s CPU    130.29s WALL (       1 calls)
     v_of_rho     :      0.00s CPU      0.02s WALL (       1 calls)
     v_h          :      0.00s CPU      0.00s WALL (       1 calls)
     v_xc         :      0.00s CPU      0.02s WALL (       1 calls)

     Called by c_bands:
     init_us_2    :      0.11s CPU      0.12s WALL (     256 calls)
     init_us_2:cp :      0.11s CPU      0.12s WALL (     256 calls)
     cegterg      :    123.25s CPU    124.81s WALL (     552 calls)

     Called by sum_band:

     Called by *egterg:
     cdiaghg      :      2.58s CPU      2.59s WALL (    9077 calls)
     cegterg:over :     15.38s CPU     15.18s WALL (    8821 calls)
     cegterg:upda :      6.70s CPU      6.43s WALL (    8821 calls)
     cegterg:last :     12.34s CPU     12.36s WALL (    6651 calls)
     h_psi        :     87.81s CPU     89.36s WALL (    9629 calls)
     g_psi        :      0.55s CPU      0.63s WALL (    8821 calls)

     Called by h_psi:
     h_psi:calbec :      6.97s CPU      7.20s WALL (    9629 calls)
     vloc_psi     :     75.08s CPU     75.95s WALL (    9629 calls)
     add_vuspsi   :      5.27s CPU      5.13s WALL (    9629 calls)

     General routines
     calbec       :      6.91s CPU      7.16s WALL (    9629 calls)
     fft          :      0.00s CPU      0.00s WALL (      10 calls)
     fftw         :     67.56s CPU     68.21s WALL (  227908 calls)
     davcio       :      0.02s CPU      0.47s WALL (     512 calls)


     PWSCF        :   2m 8.09s CPU   2m10.71s WALL


   This run was terminated on:   9:27:25   9Jun2024            

=------------------------------------------------------------------------------=
   JOB DONE.
=------------------------------------------------------------------------------=
