
     Program PWSCF v.7.2 starts on  8Jun2024 at 20:47:31 

     This program is part of the open-source Quantum ESPRESSO suite
     for quantum simulation of materials; please cite
         "P. Giannozzi et al., J. Phys.:Condens. Matter 21 395502 (2009);
         "P. Giannozzi et al., J. Phys.:Condens. Matter 29 465901 (2017);
         "P. Giannozzi et al., J. Chem. Phys. 152 154105 (2020);
          URL http://www.quantum-espresso.org", 
     in publications or presentations arising from this work. More details at
     http://www.quantum-espresso.org/quote

     Serial version
     10200 MiB available memory on the printing compute node when the environment starts

     Waiting for input...
     Reading input from standard input

     Current dimensions of program PWSCF are:
     Max number of different atomic species (ntypx) = 10
     Max number of k-points (npk) =  40000
     Max angular momentum in pseudopotentials (lmaxx) =  4


     G-vector sticks info
     --------------------
     sticks:   dense  smooth     PW     G-vecs:    dense   smooth      PW
     Sum         871     871    253                16961    16961    2741

     Using Slab Decomposition



     bravais-lattice index     =            2
     lattice parameter (alat)  =      10.2847  a.u.
     unit-cell volume          =     271.9678 (a.u.)^3
     number of atoms/cell      =            2
     number of atomic types    =            2
     number of electrons       =        26.00
     number of Kohn-Sham states=           13
     kinetic-energy cutoff     =      60.0000  Ry
     charge density cutoff     =     240.0000  Ry
     scf convergence threshold =      1.0E-08
     mixing beta               =       0.7000
     number of iterations used =            8  plain     mixing
     Exchange-correlation= PBE
                           (   1   4   3   4   0   0   0)

     celldm(1)=  10.284720  celldm(2)=   0.000000  celldm(3)=   0.000000
     celldm(4)=   0.000000  celldm(5)=   0.000000  celldm(6)=   0.000000

     crystal axes: (cart. coord. in units of alat)
               a(1) = (  -0.500000   0.000000   0.500000 )  
               a(2) = (   0.000000   0.500000   0.500000 )  
               a(3) = (  -0.500000   0.500000   0.000000 )  

     reciprocal axes: (cart. coord. in units 2 pi/alat)
               b(1) = ( -1.000000 -1.000000  1.000000 )  
               b(2) = (  1.000000  1.000000  1.000000 )  
               b(3) = ( -1.000000  1.000000 -1.000000 )  


     PseudoPot. # 1 for Zn read from file:
     /home/paolo/project_labqsm/pseudopotentials/Zn_ONCV_PBE-1.2.upf
     MD5 check sum: 732f41c0cd6489a4b50a33b4ec99a2d3
     Pseudo is Norm-conserving, Zval = 20.0
     Generated using ONCVPSP code by D. R. Hamann
     Using radial grid of  602 points,  6 beta functions with: 
                l(1) =   0
                l(2) =   0
                l(3) =   1
                l(4) =   1
                l(5) =   2
                l(6) =   2

     PseudoPot. # 2 for S  read from file:
     /home/paolo/project_labqsm/pseudopotentials/S_ONCV_PBE-1.2.upf
     MD5 check sum: f9d020296ee6110346977bfd66d424f6
     Pseudo is Norm-conserving, Zval =  6.0
     Generated using ONCVPSP code by D. R. Hamann
     Using radial grid of  602 points,  4 beta functions with: 
                l(1) =   0
                l(2) =   0
                l(3) =   1
                l(4) =   1

     atomic species   valence    mass     pseudopotential
        Zn            20.00    65.38000     Zn( 1.00)
        S              6.00    32.06000     S ( 1.00)

     24 Sym. Ops. (no inversion) found



   Cartesian axes

     site n.     atom                  positions (alat units)
         1           Zn  tau(   1) = (   0.0000000   0.0000000   0.0000000  )
         2           S   tau(   2) = (   0.2500000   0.2500000   0.2500000  )

     number of k points=    29
                       cart. coord. in units 2pi/alat
        k(    1) = (   0.0000000   0.0000000   0.0000000), wk =   0.0039062
        k(    2) = (  -0.1250000   0.1250000  -0.1250000), wk =   0.0312500
        k(    3) = (  -0.2500000   0.2500000  -0.2500000), wk =   0.0312500
        k(    4) = (  -0.3750000   0.3750000  -0.3750000), wk =   0.0312500
        k(    5) = (   0.5000000  -0.5000000   0.5000000), wk =   0.0156250
        k(    6) = (   0.0000000   0.2500000   0.0000000), wk =   0.0234375
        k(    7) = (  -0.1250000   0.3750000  -0.1250000), wk =   0.0937500
        k(    8) = (  -0.2500000   0.5000000  -0.2500000), wk =   0.0937500
        k(    9) = (   0.6250000  -0.3750000   0.6250000), wk =   0.0937500
        k(   10) = (   0.5000000  -0.2500000   0.5000000), wk =   0.0937500
        k(   11) = (   0.3750000  -0.1250000   0.3750000), wk =   0.0937500
        k(   12) = (   0.2500000   0.0000000   0.2500000), wk =   0.0468750
        k(   13) = (   0.0000000   0.5000000   0.0000000), wk =   0.0234375
        k(   14) = (  -0.1250000   0.6250000  -0.1250000), wk =   0.0937500
        k(   15) = (   0.7500000  -0.2500000   0.7500000), wk =   0.0937500
        k(   16) = (   0.6250000  -0.1250000   0.6250000), wk =   0.0937500
        k(   17) = (   0.5000000   0.0000000   0.5000000), wk =   0.0468750
        k(   18) = (   0.0000000   0.7500000   0.0000000), wk =   0.0234375
        k(   19) = (   0.8750000  -0.1250000   0.8750000), wk =   0.0937500
        k(   20) = (   0.7500000   0.0000000   0.7500000), wk =   0.0468750
        k(   21) = (   0.0000000  -1.0000000   0.0000000), wk =   0.0117188
        k(   22) = (  -0.2500000   0.5000000   0.0000000), wk =   0.0937500
        k(   23) = (   0.6250000  -0.3750000   0.8750000), wk =   0.1875000
        k(   24) = (   0.5000000  -0.2500000   0.7500000), wk =   0.0937500
        k(   25) = (   0.7500000  -0.2500000   1.0000000), wk =   0.0937500
        k(   26) = (   0.6250000  -0.1250000   0.8750000), wk =   0.1875000
        k(   27) = (   0.5000000   0.0000000   0.7500000), wk =   0.0937500
        k(   28) = (  -0.2500000  -1.0000000   0.0000000), wk =   0.0468750
        k(   29) = (  -0.5000000  -1.0000000   0.0000000), wk =   0.0234375

     Dense  grid:    16961 G-vectors     FFT dimensions: (  36,  36,  36)

     Estimated max dynamical RAM per process >      28.54 MB

     Initial potential from superposition of free atoms

     starting charge      25.9670, renormalised to      26.0000
     Starting wfcs are random

     total cpu time spent up to now is        0.5 secs

     Self-consistent Calculation

     iteration #  1     ecut=    60.00 Ry     beta= 0.70
     Davidson diagonalization with overlap
     ethr =  1.00E-02,  avg # of iterations = 13.2

     Threshold (ethr) on eigenvalues was too large:
     Diagonalizing with lowered threshold

     Davidson diagonalization with overlap
     ethr =  6.13E-04,  avg # of iterations =  1.9

     total cpu time spent up to now is        5.2 secs

     total energy              =    -420.84729688 Ry
     estimated scf accuracy    <       0.12045013 Ry

     iteration #  2     ecut=    60.00 Ry     beta= 0.70
     Davidson diagonalization with overlap
     ethr =  4.63E-04,  avg # of iterations =  2.1

     total cpu time spent up to now is        6.3 secs

     total energy              =    -420.88921742 Ry
     estimated scf accuracy    <       0.06176572 Ry

     iteration #  3     ecut=    60.00 Ry     beta= 0.70
     Davidson diagonalization with overlap
     ethr =  2.38E-04,  avg # of iterations =  2.0

     total cpu time spent up to now is        7.4 secs

     total energy              =    -420.89987478 Ry
     estimated scf accuracy    <       0.00079293 Ry

     iteration #  4     ecut=    60.00 Ry     beta= 0.70
     Davidson diagonalization with overlap
     ethr =  3.05E-06,  avg # of iterations =  3.1

     total cpu time spent up to now is        8.7 secs

     total energy              =    -420.90013171 Ry
     estimated scf accuracy    <       0.00033184 Ry

     iteration #  5     ecut=    60.00 Ry     beta= 0.70
     Davidson diagonalization with overlap
     ethr =  1.28E-06,  avg # of iterations =  2.0

     total cpu time spent up to now is       10.0 secs

     total energy              =    -420.90022828 Ry
     estimated scf accuracy    <       0.00003203 Ry

     iteration #  6     ecut=    60.00 Ry     beta= 0.70
     Davidson diagonalization with overlap
     ethr =  1.23E-07,  avg # of iterations =  2.0

     total cpu time spent up to now is       11.2 secs

     total energy              =    -420.90023876 Ry
     estimated scf accuracy    <       0.00000878 Ry

     iteration #  7     ecut=    60.00 Ry     beta= 0.70
     Davidson diagonalization with overlap
     ethr =  3.38E-08,  avg # of iterations =  2.0

     total cpu time spent up to now is       12.3 secs

     total energy              =    -420.90023986 Ry
     estimated scf accuracy    <       0.00000023 Ry

     iteration #  8     ecut=    60.00 Ry     beta= 0.70
     Davidson diagonalization with overlap
     ethr =  8.82E-10,  avg # of iterations =  3.2

     total cpu time spent up to now is       13.7 secs

     total energy              =    -420.90024001 Ry
     estimated scf accuracy    <       0.00000012 Ry

     iteration #  9     ecut=    60.00 Ry     beta= 0.70
     Davidson diagonalization with overlap
     ethr =  4.79E-10,  avg # of iterations =  2.0

     total cpu time spent up to now is       14.8 secs

     total energy              =    -420.90024001 Ry
     estimated scf accuracy    <       0.00000002 Ry

     iteration # 10     ecut=    60.00 Ry     beta= 0.70
     Davidson diagonalization with overlap
     ethr =  6.58E-11,  avg # of iterations =  2.3

     total cpu time spent up to now is       16.0 secs

     End of self-consistent calculation

          k = 0.0000 0.0000 0.0000 (  2109 PWs)   bands (ev):

  -117.6802 -71.8352 -71.8352 -71.8352  -5.7909   0.9392   0.9392   0.9392
     1.4092   1.4092   7.2017   7.2017   7.2017

          k =-0.1250 0.1250-0.1250 (  2124 PWs)   bands (ev):

  -117.6802 -71.8352 -71.8352 -71.8352  -5.6785   0.9421   0.9591   0.9591
     1.4074   1.4074   6.1007   7.0602   7.0602

          k =-0.2500 0.2500-0.2500 (  2127 PWs)   bands (ev):

  -117.6802 -71.8352 -71.8352 -71.8352  -5.3855   0.9946   1.0030   1.0030
     1.4106   1.4106   4.4199   6.7512   6.7512

          k =-0.3750 0.3750-0.3750 (  2132 PWs)   bands (ev):

  -117.6802 -71.8353 -71.8352 -71.8352  -5.0543   1.0378   1.0378   1.2119
     1.4268   1.4268   2.9334   6.4748   6.4748

          k = 0.5000-0.5000 0.5000 (  2138 PWs)   bands (ev):

  -117.6802 -71.8353 -71.8352 -71.8352  -4.9026   1.0487   1.0487   1.4380
     1.4380   1.6058   2.0542   6.3674   6.3674

          k = 0.0000 0.2500 0.0000 (  2133 PWs)   bands (ev):

  -117.6802 -71.8352 -71.8352 -71.8352  -5.6410   0.9226   0.9760   0.9760
     1.3935   1.4194   6.1369   6.8097   6.8097

          k =-0.1250 0.3750-0.1250 (  2122 PWs)   bands (ev):

  -117.6802 -71.8352 -71.8352 -71.8352  -5.4074   0.9353   1.0231   1.0250
     1.3875   1.4288   4.8797   6.4452   6.5143

          k =-0.2500 0.5000-0.2500 (  2125 PWs)   bands (ev):

  -117.6802 -71.8353 -71.8352 -71.8352  -5.0841   1.0118   1.0646   1.1304
     1.4125   1.4402   3.4317   6.1067   6.1832

          k = 0.6250-0.3750 0.6250 (  2134 PWs)   bands (ev):

  -117.6802 -71.8353 -71.8352 -71.8352  -4.8642   1.0479   1.0788   1.3657
     1.4409   1.5709   2.3339   5.7635   6.1465

          k = 0.5000-0.2500 0.5000 (  2134 PWs)   bands (ev):

  -117.6802 -71.8353 -71.8352 -71.8352  -4.9150   1.0522   1.0672   1.3280
     1.4184   1.4809   2.6334   5.6450   6.3493

          k = 0.3750-0.1250 0.3750 (  2133 PWs)   bands (ev):

  -117.6802 -71.8353 -71.8352 -71.8352  -5.1948   1.0282   1.0308   1.0628
     1.3949   1.4377   3.8890   5.8315   6.6980

          k = 0.2500 0.0000 0.2500 (  2123 PWs)   bands (ev):

  -117.6802 -71.8352 -71.8352 -71.8352  -5.5052   0.9522   0.9834   1.0010
     1.3943   1.4204   5.2399   6.3818   7.0065

          k = 0.0000 0.5000 0.0000 (  2141 PWs)   bands (ev):

  -117.6802 -71.8352 -71.8352 -71.8352  -5.2499   0.9019   1.0787   1.0787
     1.3732   1.4435   4.6594   6.0126   6.0126

          k =-0.1250 0.6250-0.1250 (  2126 PWs)   bands (ev):

  -117.6802 -71.8353 -71.8352 -71.8352  -4.9857   0.9451   1.1334   1.1478
     1.4105   1.4550   3.7449   5.5007   5.7050

          k = 0.7500-0.2500 0.7500 (  2136 PWs)   bands (ev):

  -117.6802 -71.8353 -71.8352 -71.8352  -4.7645   1.0261   1.1544   1.2664
     1.4501   1.5730   2.8207   4.8822   5.6653

          k = 0.6250-0.1250 0.6250 (  2138 PWs)   bands (ev):

  -117.6802 -71.8353 -71.8353 -71.8352  -4.7392   1.0542   1.1376   1.3629
     1.4215   1.6325   2.6231   4.5259   5.9116

          k = 0.5000 0.0000 0.5000 (  2135 PWs)   bands (ev):

  -117.6802 -71.8353 -71.8352 -71.8352  -4.9272   1.0590   1.0880   1.2212
     1.3955   1.4700   3.3201   4.7770   6.3313

          k = 0.0000 0.7500 0.0000 (  2128 PWs)   bands (ev):

  -117.6802 -71.8353 -71.8352 -71.8352  -4.8071   0.9170   1.2041   1.2041
     1.4491   1.4691   3.3815   5.3280   5.3280

          k = 0.8750-0.1250 0.8750 (  2139 PWs)   bands (ev):

  -117.6802 -71.8353 -71.8352 -71.8352  -4.6538   0.9650   1.2331   1.2520
     1.4672   1.5997   2.8837   4.7959   5.2320

          k = 0.7500 0.0000 0.7500 (  2141 PWs)   bands (ev):

  -117.6802 -71.8353 -71.8353 -71.8352  -4.6269   1.0267   1.2070   1.3132
     1.4425   1.7404   2.6881   4.1968   5.4613

          k = 0.0000-1.0000 0.0000 (  2100 PWs)   bands (ev):

  -117.6802 -71.8353 -71.8352 -71.8352  -4.6043   0.9319   1.2658   1.2658
     1.4800   1.6228   2.7280   5.0615   5.0615

          k =-0.2500 0.5000 0.0000 (  2127 PWs)   bands (ev):

  -117.6802 -71.8353 -71.8352 -71.8352  -5.1563   0.9705   1.0665   1.0938
     1.3895   1.4449   4.1102   5.5611   6.3338

          k = 0.6250-0.3750 0.8750 (  2131 PWs)   bands (ev):

  -117.6802 -71.8353 -71.8352 -71.8352  -4.8799   1.0495   1.0961   1.2397
     1.4271   1.4832   3.0953   5.0487   5.9794

          k = 0.5000-0.2500 0.7500 (  2132 PWs)   bands (ev):

  -117.6802 -71.8353 -71.8352 -71.8352  -4.7565   1.0634   1.1157   1.3631
     1.4222   1.6699   2.4442   4.9301   5.7965

          k = 0.7500-0.2500 1.0000 (  2142 PWs)   bands (ev):

  -117.6802 -71.8353 -71.8352 -71.8352  -4.7725   0.9949   1.1629   1.2349
     1.4529   1.5118   3.1924   4.9253   5.3602

          k = 0.6250-0.1250 0.8750 (  2149 PWs)   bands (ev):

  -117.6802 -71.8353 -71.8353 -71.8352  -4.6476   1.0515   1.1814   1.3205
     1.4244   1.7104   2.7323   4.4173   5.2085

          k = 0.5000 0.0000 0.7500 (  2144 PWs)   bands (ev):

  -117.6802 -71.8353 -71.8353 -71.8352  -4.6951   1.0708   1.1466   1.3526
     1.4055   1.6438   2.8199   4.3117   5.5162

          k =-0.2500-1.0000 0.0000 (  2150 PWs)   bands (ev):

  -117.6802 -71.8353 -71.8352 -71.8352  -4.6015   1.0000   1.2311   1.2833
     1.4530   1.7062   2.7238   4.8009   4.8074

          k =-0.5000-1.0000 0.0000 (  2148 PWs)   bands (ev):

  -117.6802 -71.8353 -71.8353 -71.8352  -4.5987   1.0704   1.2061   1.3591
     1.3747   1.7890   2.7197   4.5614   4.5712

     highest occupied level (ev):     7.2017

!    total energy              =    -420.90024002 Ry
     estimated scf accuracy    <          4.4E-09 Ry

     The total energy is the sum of the following terms:
     one-electron contribution =    -340.47022525 Ry
     hartree contribution      =     173.63734175 Ry
     xc contribution           =     -40.98771317 Ry
     ewald contribution        =    -213.07964334 Ry

     convergence has been achieved in  10 iterations

     Writing all to output data dir ./SCRATCH/zns.save/

     init_run     :      0.38s CPU      0.45s WALL (       1 calls)
     electrons    :     15.31s CPU     15.54s WALL (       1 calls)

     Called by init_run:
     wfcinit      :      0.33s CPU      0.37s WALL (       1 calls)
     potinit      :      0.03s CPU      0.03s WALL (       1 calls)
     hinit0       :      0.02s CPU      0.03s WALL (       1 calls)

     Called by electrons:
     c_bands      :     13.72s CPU     13.90s WALL (      11 calls)
     sum_band     :      1.45s CPU      1.48s WALL (      11 calls)
     v_of_rho     :      0.14s CPU      0.15s WALL (      11 calls)
     mix_rho      :      0.02s CPU      0.02s WALL (      11 calls)

     Called by c_bands:
     init_us_2    :      0.30s CPU      0.29s WALL (     667 calls)
     init_us_2:cp :      0.30s CPU      0.29s WALL (     667 calls)
     cegterg      :     13.19s CPU     13.41s WALL (     319 calls)

     Called by *egterg:
     cdiaghg      :      0.22s CPU      0.17s WALL (    1330 calls)
     h_psi        :     10.62s CPU     10.81s WALL (    1388 calls)
     g_psi        :      0.00s CPU      0.06s WALL (    1040 calls)

     Called by h_psi:
     h_psi:calbec :      0.70s CPU      0.83s WALL (    1388 calls)
     vloc_psi     :      9.09s CPU      9.31s WALL (    1388 calls)
     add_vuspsi   :      0.80s CPU      0.61s WALL (    1388 calls)

     General routines
     calbec       :      0.70s CPU      0.83s WALL (    1388 calls)
     fft          :      0.03s CPU      0.05s WALL (     110 calls)
     ffts         :      0.00s CPU      0.01s WALL (      11 calls)
     fftw         :      9.25s CPU      9.51s WALL (   33363 calls)


     PWSCF        :     15.73s CPU     16.05s WALL


   This run was terminated on:  20:47:48   8Jun2024            

=------------------------------------------------------------------------------=
   JOB DONE.
=------------------------------------------------------------------------------=
