
     Program PWSCF v.7.2 starts on  5May2024 at 10: 4:40 

     This program is part of the open-source Quantum ESPRESSO suite
     for quantum simulation of materials; please cite
         "P. Giannozzi et al., J. Phys.:Condens. Matter 21 395502 (2009);
         "P. Giannozzi et al., J. Phys.:Condens. Matter 29 465901 (2017);
         "P. Giannozzi et al., J. Chem. Phys. 152 154105 (2020);
          URL http://www.quantum-espresso.org", 
     in publications or presentations arising from this work. More details at
     http://www.quantum-espresso.org/quote

     Serial version
     9554 MiB available memory on the printing compute node when the environment starts

     Waiting for input...
     Reading input from standard input

     Current dimensions of program PWSCF are:
     Max number of different atomic species (ntypx) = 10
     Max number of k-points (npk) =  40000
     Max angular momentum in pseudopotentials (lmaxx) =  4


     G-vector sticks info
     --------------------
     sticks:   dense  smooth     PW     G-vecs:    dense   smooth      PW
     Sum         583     583    187                 9257     9257    1639

     Using Slab Decomposition



     bravais-lattice index     =            2
     lattice parameter (alat)  =      10.2631  a.u.
     unit-cell volume          =     270.2564 (a.u.)^3
     number of atoms/cell      =            1
     number of atomic types    =            1
     number of electrons       =         4.00
     number of Kohn-Sham states=            2
     kinetic-energy cutoff     =      40.0000  Ry
     charge density cutoff     =     160.0000  Ry
     scf convergence threshold =      1.0E-08
     mixing beta               =       0.7000
     number of iterations used =            8  plain     mixing
     Exchange-correlation=  SLA  PZ   NOGX NOGC
                           (   1   1   0   0   0   0   0)

     celldm(1)=  10.263102  celldm(2)=   0.000000  celldm(3)=   0.000000
     celldm(4)=   0.000000  celldm(5)=   0.000000  celldm(6)=   0.000000

     crystal axes: (cart. coord. in units of alat)
               a(1) = (  -0.500000   0.000000   0.500000 )  
               a(2) = (   0.000000   0.500000   0.500000 )  
               a(3) = (  -0.500000   0.500000   0.000000 )  

     reciprocal axes: (cart. coord. in units 2 pi/alat)
               b(1) = ( -1.000000 -1.000000  1.000000 )  
               b(2) = (  1.000000  1.000000  1.000000 )  
               b(3) = ( -1.000000  1.000000 -1.000000 )  


     PseudoPot. # 1 for Si read from file:
     /home/paolo/project_labqsm/pseudopotentials/Si.pz-vbc.UPF
     MD5 check sum: dc3b11d017da532b29132e08c0a6883c
     Pseudo is Norm-conserving, Zval =  4.0
     Generated by new atomic code, or converted to UPF format
     Using radial grid of  431 points,  2 beta functions with: 
                l(1) =   0
                l(2) =   1

     atomic species   valence    mass     pseudopotential
        Si             4.00    12.01100     Si( 1.00)

     48 Sym. Ops., with inversion, found



   Cartesian axes

     site n.     atom                  positions (alat units)
         1           Si  tau(   1) = (   0.0000000   0.0000000   0.0000000  )

     number of k points=    72
                       cart. coord. in units 2pi/alat
        k(    1) = (   0.0000000   0.0000000   0.0000000), wk =   0.0011574
        k(    2) = (  -0.0833333   0.0833333  -0.0833333), wk =   0.0092593
        k(    3) = (  -0.1666667   0.1666667  -0.1666667), wk =   0.0092593
        k(    4) = (  -0.2500000   0.2500000  -0.2500000), wk =   0.0092593
        k(    5) = (  -0.3333333   0.3333333  -0.3333333), wk =   0.0092593
        k(    6) = (  -0.4166667   0.4166667  -0.4166667), wk =   0.0092593
        k(    7) = (   0.5000000  -0.5000000   0.5000000), wk =   0.0046296
        k(    8) = (   0.0000000   0.1666667   0.0000000), wk =   0.0069444
        k(    9) = (  -0.0833333   0.2500000  -0.0833333), wk =   0.0277778
        k(   10) = (  -0.1666667   0.3333333  -0.1666667), wk =   0.0277778
        k(   11) = (  -0.2500000   0.4166667  -0.2500000), wk =   0.0277778
        k(   12) = (  -0.3333333   0.5000000  -0.3333333), wk =   0.0277778
        k(   13) = (   0.5833333  -0.4166667   0.5833333), wk =   0.0277778
        k(   14) = (   0.5000000  -0.3333333   0.5000000), wk =   0.0277778
        k(   15) = (   0.4166667  -0.2500000   0.4166667), wk =   0.0277778
        k(   16) = (   0.3333333  -0.1666667   0.3333333), wk =   0.0277778
        k(   17) = (   0.2500000  -0.0833333   0.2500000), wk =   0.0277778
        k(   18) = (   0.1666667  -0.0000000   0.1666667), wk =   0.0138889
        k(   19) = (   0.0000000   0.3333333   0.0000000), wk =   0.0069444
        k(   20) = (  -0.0833333   0.4166667  -0.0833333), wk =   0.0277778
        k(   21) = (  -0.1666667   0.5000000  -0.1666667), wk =   0.0277778
        k(   22) = (  -0.2500000   0.5833333  -0.2500000), wk =   0.0277778
        k(   23) = (   0.6666667  -0.3333333   0.6666667), wk =   0.0277778
        k(   24) = (   0.5833333  -0.2500000   0.5833333), wk =   0.0277778
        k(   25) = (   0.5000000  -0.1666667   0.5000000), wk =   0.0277778
        k(   26) = (   0.4166667  -0.0833333   0.4166667), wk =   0.0277778
        k(   27) = (   0.3333333   0.0000000   0.3333333), wk =   0.0138889
        k(   28) = (   0.0000000   0.5000000   0.0000000), wk =   0.0069444
        k(   29) = (  -0.0833333   0.5833333  -0.0833333), wk =   0.0277778
        k(   30) = (  -0.1666667   0.6666667  -0.1666667), wk =   0.0277778
        k(   31) = (   0.7500000  -0.2500000   0.7500000), wk =   0.0277778
        k(   32) = (   0.6666667  -0.1666667   0.6666667), wk =   0.0277778
        k(   33) = (   0.5833333  -0.0833333   0.5833333), wk =   0.0277778
        k(   34) = (   0.5000000   0.0000000   0.5000000), wk =   0.0138889
        k(   35) = (   0.0000000   0.6666667   0.0000000), wk =   0.0069444
        k(   36) = (  -0.0833333   0.7500000  -0.0833333), wk =   0.0277778
        k(   37) = (   0.8333333  -0.1666667   0.8333333), wk =   0.0277778
        k(   38) = (   0.7500000  -0.0833333   0.7500000), wk =   0.0277778
        k(   39) = (   0.6666667  -0.0000000   0.6666667), wk =   0.0138889
        k(   40) = (   0.0000000   0.8333333   0.0000000), wk =   0.0069444
        k(   41) = (   0.9166667  -0.0833333   0.9166667), wk =   0.0277778
        k(   42) = (   0.8333333   0.0000000   0.8333333), wk =   0.0138889
        k(   43) = (   0.0000000  -1.0000000   0.0000000), wk =   0.0034722
        k(   44) = (  -0.1666667   0.3333333   0.0000000), wk =   0.0277778
        k(   45) = (  -0.2500000   0.4166667  -0.0833333), wk =   0.0555556
        k(   46) = (  -0.3333333   0.5000000  -0.1666667), wk =   0.0555556
        k(   47) = (   0.5833333  -0.4166667   0.7500000), wk =   0.0555556
        k(   48) = (   0.5000000  -0.3333333   0.6666667), wk =   0.0277778
        k(   49) = (  -0.1666667   0.5000000   0.0000000), wk =   0.0277778
        k(   50) = (  -0.2500000   0.5833333  -0.0833333), wk =   0.0555556
        k(   51) = (   0.6666667  -0.3333333   0.8333333), wk =   0.0555556
        k(   52) = (   0.5833333  -0.2500000   0.7500000), wk =   0.0555556
        k(   53) = (   0.5000000  -0.1666667   0.6666667), wk =   0.0555556
        k(   54) = (   0.4166667  -0.0833333   0.5833333), wk =   0.0555556
        k(   55) = (   0.3333333   0.0000000   0.5000000), wk =   0.0277778
        k(   56) = (  -0.1666667   0.6666667  -0.0000000), wk =   0.0277778
        k(   57) = (   0.7500000  -0.2500000   0.9166667), wk =   0.0555556
        k(   58) = (   0.6666667  -0.1666667   0.8333333), wk =   0.0555556
        k(   59) = (   0.5833333  -0.0833333   0.7500000), wk =   0.0555556
        k(   60) = (   0.5000000   0.0000000   0.6666667), wk =   0.0277778
        k(   61) = (   0.8333333  -0.1666667   1.0000000), wk =   0.0277778
        k(   62) = (   0.7500000  -0.0833333   0.9166667), wk =   0.0555556
        k(   63) = (   0.6666667   0.0000000   0.8333333), wk =   0.0277778
        k(   64) = (  -0.1666667  -1.0000000  -0.0000000), wk =   0.0138889
        k(   65) = (   0.6666667  -0.3333333   1.0000000), wk =   0.0277778
        k(   66) = (   0.5833333  -0.2500000   0.9166667), wk =   0.0555556
        k(   67) = (   0.5000000  -0.1666667   0.8333333), wk =   0.0277778
        k(   68) = (   0.6666667  -0.1666667   1.0000000), wk =   0.0277778
        k(   69) = (   0.5833333  -0.0833333   0.9166667), wk =   0.0555556
        k(   70) = (   0.5000000   0.0000000   0.8333333), wk =   0.0277778
        k(   71) = (  -0.3333333  -1.0000000   0.0000000), wk =   0.0138889
        k(   72) = (  -0.5000000  -1.0000000   0.0000000), wk =   0.0069444

     Dense  grid:     9257 G-vectors     FFT dimensions: (  30,  30,  30)

     Estimated max dynamical RAM per process >       8.58 MB

     Initial potential from superposition of free atoms

     starting charge       3.9995, renormalised to       4.0000
     Starting wfcs are    4 randomized atomic wfcs

     total cpu time spent up to now is        0.2 secs

     Self-consistent Calculation

     iteration #  1     ecut=    40.00 Ry     beta= 0.70
     Davidson diagonalization with overlap
     ethr =  1.00E-02,  avg # of iterations =  1.0

     Threshold (ethr) on eigenvalues was too large:
     Diagonalizing with lowered threshold

     Davidson diagonalization with overlap
     ethr =  6.85E-05,  avg # of iterations =  3.0

     total cpu time spent up to now is        0.7 secs

     total energy              =      -7.69829674 Ry
     estimated scf accuracy    <       0.00303514 Ry

     iteration #  2     ecut=    40.00 Ry     beta= 0.70
     Davidson diagonalization with overlap
     ethr =  7.59E-05,  avg # of iterations =  1.0

     total cpu time spent up to now is        0.9 secs

     total energy              =      -7.69853201 Ry
     estimated scf accuracy    <       0.00006243 Ry

     iteration #  3     ecut=    40.00 Ry     beta= 0.70
     Davidson diagonalization with overlap
     ethr =  1.56E-06,  avg # of iterations =  2.4

     total cpu time spent up to now is        1.1 secs

     total energy              =      -7.69855472 Ry
     estimated scf accuracy    <       0.00000151 Ry

     iteration #  4     ecut=    40.00 Ry     beta= 0.70
     Davidson diagonalization with overlap
     ethr =  3.77E-08,  avg # of iterations =  4.7

     total cpu time spent up to now is        1.5 secs

     total energy              =      -7.69855832 Ry
     estimated scf accuracy    <       0.00000008 Ry

     iteration #  5     ecut=    40.00 Ry     beta= 0.70
     Davidson diagonalization with overlap
     ethr =  1.91E-09,  avg # of iterations =  3.7

     total cpu time spent up to now is        1.8 secs

     End of self-consistent calculation

          k = 0.0000 0.0000 0.0000 (  1139 PWs)   bands (ev):

    -6.9631   4.4145

          k =-0.0833 0.0833-0.0833 (  1185 PWs)   bands (ev):

    -6.8811   3.8748

          k =-0.1667 0.1667-0.1667 (  1167 PWs)   bands (ev):

    -6.6396   2.6990

          k =-0.2500 0.2500-0.2500 (  1164 PWs)   bands (ev):

    -6.2572   1.3830

          k =-0.3333 0.3333-0.3333 (  1149 PWs)   bands (ev):

    -5.7796   0.1671

          k =-0.4167 0.4167-0.4167 (  1155 PWs)   bands (ev):

    -5.3196  -0.7578

          k = 0.5000-0.5000 0.5000 (  1158 PWs)   bands (ev):

    -5.1083  -1.1271

          k = 0.0000 0.1667 0.0000 (  1179 PWs)   bands (ev):

    -6.8537   3.9610

          k =-0.0833 0.2500-0.0833 (  1164 PWs)   bands (ev):

    -6.6650   3.0627

          k =-0.1667 0.3333-0.1667 (  1155 PWs)   bands (ev):

    -6.3286   1.8235

          k =-0.2500 0.4167-0.2500 (  1151 PWs)   bands (ev):

    -5.8787   0.5914

          k =-0.3333 0.5000-0.3333 (  1153 PWs)   bands (ev):

    -5.3991  -0.4325

          k = 0.5833-0.4167 0.5833 (  1160 PWs)   bands (ev):

    -5.0793  -1.0076

          k = 0.5000-0.3333 0.5000 (  1156 PWs)   bands (ev):

    -5.1519  -0.8827

          k = 0.4167-0.2500 0.4167 (  1147 PWs)   bands (ev):

    -5.5543  -0.1243

          k = 0.3333-0.1667 0.3333 (  1151 PWs)   bands (ev):

    -6.0385   0.9891

          k = 0.2500-0.0833 0.2500 (  1160 PWs)   bands (ev):

    -6.4563   2.2294

          k = 0.1667-0.0000 0.1667 (  1171 PWs)   bands (ev):

    -6.7457   3.3161

          k = 0.0000 0.3333 0.0000 (  1162 PWs)   bands (ev):

    -6.5311   2.9821

          k =-0.0833 0.4167-0.0833 (  1158 PWs)   bands (ev):

    -6.2469   2.1208

          k =-0.1667 0.5000-0.1667 (  1151 PWs)   bands (ev):

    -5.8393   1.0312

          k =-0.2500 0.5833-0.2500 (  1152 PWs)   bands (ev):

    -5.3719   0.0187

          k = 0.6667-0.3333 0.6667 (  1153 PWs)   bands (ev):

    -4.9909  -0.6743

          k = 0.5833-0.2500 0.5833 (  1157 PWs)   bands (ev):

    -4.9272  -0.7767

          k = 0.5000-0.1667 0.5000 (  1156 PWs)   bands (ev):

    -5.2329  -0.2356

          k = 0.4167-0.0833 0.4167 (  1156 PWs)   bands (ev):

    -5.6937   0.6805

          k = 0.3333 0.0000 0.3333 (  1147 PWs)   bands (ev):

    -6.1292   1.6026

          k = 0.0000 0.5000 0.0000 (  1174 PWs)   bands (ev):

    -6.0181   1.8637

          k =-0.0833 0.5833-0.0833 (  1154 PWs)   bands (ev):

    -5.6634   1.1556

          k =-0.1667 0.6667-0.1667 (  1153 PWs)   bands (ev):

    -5.2345   0.3747

          k = 0.7500-0.2500 0.7500 (  1156 PWs)   bands (ev):

    -4.8447  -0.2456

          k = 0.6667-0.1667 0.6667 (  1151 PWs)   bands (ev):

    -4.6867  -0.4526

          k = 0.5833-0.0833 0.5833 (  1152 PWs)   bands (ev):

    -4.8737  -0.1391

          k = 0.5000 0.0000 0.5000 (  1159 PWs)   bands (ev):

    -5.2707   0.3633

          k = 0.0000 0.6667 0.0000 (  1150 PWs)   bands (ev):

    -5.3695   0.7551

          k =-0.0833 0.7500-0.0833 (  1152 PWs)   bands (ev):

    -5.0036   0.2299

          k = 0.8333-0.1667 0.8333 (  1149 PWs)   bands (ev):

    -4.6600  -0.1312

          k = 0.7500-0.0833 0.7500 (  1149 PWs)   bands (ev):

    -4.4859  -0.1426

          k = 0.6667-0.0000 0.6667 (  1141 PWs)   bands (ev):

    -4.5790   0.1585

          k = 0.0000 0.8333 0.0000 (  1162 PWs)   bands (ev):

    -4.7261  -0.1812

          k = 0.9167-0.0833 0.9167 (  1150 PWs)   bands (ev):

    -4.4900  -0.4317

          k = 0.8333 0.0000 0.8333 (  1154 PWs)   bands (ev):

    -4.3997  -0.3540

          k = 0.0000-1.0000 0.0000 (  1162 PWs)   bands (ev):

    -4.4175  -0.5917

          k =-0.1667 0.3333 0.0000 (  1157 PWs)   bands (ev):

    -6.4285   2.4155

          k =-0.2500 0.4167-0.0833 (  1148 PWs)   bands (ev):

    -6.0552   1.3959

          k =-0.3333 0.5000-0.1667 (  1155 PWs)   bands (ev):

    -5.5921   0.3084

          k = 0.5833-0.4167 0.7500 (  1151 PWs)   bands (ev):

    -5.1509  -0.5509

          k = 0.5000-0.3333 0.6667 (  1152 PWs)   bands (ev):

    -4.9510  -0.8960

          k =-0.1667 0.5000 0.0000 (  1156 PWs)   bands (ev):

    -5.9264   1.5062

          k =-0.2500 0.5833-0.0833 (  1152 PWs)   bands (ev):

    -5.5040   0.6848

          k = 0.6667-0.3333 0.8333 (  1153 PWs)   bands (ev):

    -5.0655  -0.1101

          k = 0.5833-0.2500 0.7500 (  1152 PWs)   bands (ev):

    -4.7855  -0.5675

          k = 0.5000-0.1667 0.6667 (  1155 PWs)   bands (ev):

    -4.8544  -0.4464

          k = 0.4167-0.0833 0.5833 (  1154 PWs)   bands (ev):

    -5.2171   0.1662

          k = 0.3333 0.0000 0.5000 (  1157 PWs)   bands (ev):

    -5.6635   0.8835

          k =-0.1667 0.6667-0.0000 (  1154 PWs)   bands (ev):

    -5.2979   0.6290

          k = 0.7500-0.2500 0.9167 (  1156 PWs)   bands (ev):

    -4.9002   0.1229

          k = 0.6667-0.1667 0.8333 (  1154 PWs)   bands (ev):

    -4.6058  -0.1813

          k = 0.5833-0.0833 0.7500 (  1157 PWs)   bands (ev):

    -4.5783  -0.1152

          k = 0.5000 0.0000 0.6667 (  1161 PWs)   bands (ev):

    -4.8323   0.1068

          k = 0.8333-0.1667 1.0000 (  1160 PWs)   bands (ev):

    -4.6861  -0.1319

          k = 0.7500-0.0833 0.9167 (  1153 PWs)   bands (ev):

    -4.4545  -0.2409

          k = 0.6667 0.0000 0.8333 (  1151 PWs)   bands (ev):

    -4.4164  -0.0028

          k =-0.1667-1.0000-0.0000 (  1148 PWs)   bands (ev):

    -4.3999  -0.4726

          k = 0.6667-0.3333 1.0000 (  1151 PWs)   bands (ev):

    -5.1005   0.3368

          k = 0.5833-0.2500 0.9167 (  1152 PWs)   bands (ev):

    -4.7348  -0.0458

          k = 0.5000-0.1667 0.8333 (  1152 PWs)   bands (ev):

    -4.5775  -0.2374

          k = 0.6667-0.1667 1.0000 (  1155 PWs)   bands (ev):

    -4.5867  -0.0038

          k = 0.5833-0.0833 0.9167 (  1158 PWs)   bands (ev):

    -4.4177   0.0858

          k = 0.5000 0.0000 0.8333 (  1153 PWs)   bands (ev):

    -4.4803   0.2043

          k =-0.3333-1.0000 0.0000 (  1154 PWs)   bands (ev):

    -4.3641  -0.1201

          k =-0.5000-1.0000 0.0000 (  1144 PWs)   bands (ev):

    -4.3456   0.4490

     highest occupied level (ev):     4.4145

!    total energy              =      -7.69855838 Ry
     estimated scf accuracy    <          1.4E-10 Ry

     The total energy is the sum of the following terms:
     one-electron contribution =       1.01757932 Ry
     hartree contribution      =       0.43899244 Ry
     xc contribution           =      -2.00740864 Ry
     ewald contribution        =      -7.14772149 Ry

     convergence has been achieved in   5 iterations

     Writing all to output data dir ./SCRATCH/silicon.save/

     init_run     :      0.17s CPU      0.18s WALL (       1 calls)
     electrons    :      1.52s CPU      1.61s WALL (       1 calls)

     Called by init_run:
     wfcinit      :      0.16s CPU      0.16s WALL (       1 calls)
     potinit      :      0.00s CPU      0.00s WALL (       1 calls)
     hinit0       :      0.02s CPU      0.01s WALL (       1 calls)

     Called by electrons:
     c_bands      :      1.31s CPU      1.37s WALL (       6 calls)
     sum_band     :      0.20s CPU      0.23s WALL (       6 calls)
     v_of_rho     :      0.00s CPU      0.01s WALL (       6 calls)
     mix_rho      :      0.00s CPU      0.01s WALL (       6 calls)

     Called by c_bands:
     init_us_2    :      0.12s CPU      0.08s WALL (     936 calls)
     init_us_2:cp :      0.12s CPU      0.08s WALL (     936 calls)
     cegterg      :      1.22s CPU      1.27s WALL (     432 calls)

     Called by *egterg:
     cdiaghg      :      0.00s CPU      0.01s WALL (    1507 calls)
     h_psi        :      1.30s CPU      1.28s WALL (    1651 calls)
     g_psi        :      0.00s CPU      0.01s WALL (    1147 calls)

     Called by h_psi:
     h_psi:calbec :      0.05s CPU      0.02s WALL (    1651 calls)
     vloc_psi     :      1.22s CPU      1.22s WALL (    1651 calls)
     add_vuspsi   :      0.02s CPU      0.02s WALL (    1651 calls)

     General routines
     calbec       :      0.05s CPU      0.02s WALL (    1651 calls)
     fft          :      0.00s CPU      0.00s WALL (      18 calls)
     ffts         :      0.02s CPU      0.00s WALL (       6 calls)
     fftw         :      1.09s CPU      1.25s WALL (    6872 calls)


     PWSCF        :      1.70s CPU      1.84s WALL


   This run was terminated on:  10: 4:42   5May2024            

=------------------------------------------------------------------------------=
   JOB DONE.
=------------------------------------------------------------------------------=
