
     Program PWSCF v.7.2 starts on 12May2024 at 11:15:20 

     This program is part of the open-source Quantum ESPRESSO suite
     for quantum simulation of materials; please cite
         "P. Giannozzi et al., J. Phys.:Condens. Matter 21 395502 (2009);
         "P. Giannozzi et al., J. Phys.:Condens. Matter 29 465901 (2017);
         "P. Giannozzi et al., J. Chem. Phys. 152 154105 (2020);
          URL http://www.quantum-espresso.org", 
     in publications or presentations arising from this work. More details at
     http://www.quantum-espresso.org/quote

     Serial version
     8928 MiB available memory on the printing compute node when the environment starts

     Waiting for input...
     Reading input from standard input

     Current dimensions of program PWSCF are:
     Max number of different atomic species (ntypx) = 10
     Max number of k-points (npk) =  40000
     Max angular momentum in pseudopotentials (lmaxx) =  4


     G-vector sticks info
     --------------------
     sticks:   dense  smooth     PW     G-vecs:    dense   smooth      PW
     Sum         955     955    295                19603    19603    3215

     Using Slab Decomposition



     bravais-lattice index     =            2
     lattice parameter (alat)  =      10.7763  a.u.
     unit-cell volume          =     312.8555 (a.u.)^3
     number of atoms/cell      =            1
     number of atomic types    =            1
     number of electrons       =         4.00
     number of Kohn-Sham states=            2
     kinetic-energy cutoff     =      60.0000  Ry
     charge density cutoff     =     240.0000  Ry
     scf convergence threshold =      1.0E-08
     mixing beta               =       0.7000
     number of iterations used =            8  plain     mixing
     energy convergence thresh.=      1.0E-05
     force convergence thresh. =      1.0E-04
     press convergence thresh. =      5.0E-01
     Exchange-correlation=  SLA  PZ   NOGX NOGC
                           (   1   1   0   0   0   0   0)
     nstep                     =           50


     celldm(1)=  10.776257  celldm(2)=   0.000000  celldm(3)=   0.000000
     celldm(4)=   0.000000  celldm(5)=   0.000000  celldm(6)=   0.000000

     crystal axes: (cart. coord. in units of alat)
               a(1) = (  -0.500000   0.000000   0.500000 )  
               a(2) = (   0.000000   0.500000   0.500000 )  
               a(3) = (  -0.500000   0.500000   0.000000 )  

     reciprocal axes: (cart. coord. in units 2 pi/alat)
               b(1) = ( -1.000000 -1.000000  1.000000 )  
               b(2) = (  1.000000  1.000000  1.000000 )  
               b(3) = ( -1.000000  1.000000 -1.000000 )  


     PseudoPot. # 1 for Si read from file:
     /home/paolo/project_labqsm/pseudopotentials/Si.pz-vbc.UPF
     MD5 check sum: dc3b11d017da532b29132e08c0a6883c
     Pseudo is Norm-conserving, Zval =  4.0
     Generated by new atomic code, or converted to UPF format
     Using radial grid of  431 points,  2 beta functions with: 
                l(1) =   0
                l(2) =   1

     atomic species   valence    mass     pseudopotential
        Si             4.00    12.01100     Si( 1.00)

     48 Sym. Ops., with inversion, found



   Cartesian axes

     site n.     atom                  positions (alat units)
         1           Si  tau(   1) = (   0.0000000   0.0000000   0.0000000  )

     number of k points=    29
                       cart. coord. in units 2pi/alat
        k(    1) = (   0.0000000   0.0000000   0.0000000), wk =   0.0039062
        k(    2) = (  -0.1250000   0.1250000  -0.1250000), wk =   0.0312500
        k(    3) = (  -0.2500000   0.2500000  -0.2500000), wk =   0.0312500
        k(    4) = (  -0.3750000   0.3750000  -0.3750000), wk =   0.0312500
        k(    5) = (   0.5000000  -0.5000000   0.5000000), wk =   0.0156250
        k(    6) = (   0.0000000   0.2500000   0.0000000), wk =   0.0234375
        k(    7) = (  -0.1250000   0.3750000  -0.1250000), wk =   0.0937500
        k(    8) = (  -0.2500000   0.5000000  -0.2500000), wk =   0.0937500
        k(    9) = (   0.6250000  -0.3750000   0.6250000), wk =   0.0937500
        k(   10) = (   0.5000000  -0.2500000   0.5000000), wk =   0.0937500
        k(   11) = (   0.3750000  -0.1250000   0.3750000), wk =   0.0937500
        k(   12) = (   0.2500000   0.0000000   0.2500000), wk =   0.0468750
        k(   13) = (   0.0000000   0.5000000   0.0000000), wk =   0.0234375
        k(   14) = (  -0.1250000   0.6250000  -0.1250000), wk =   0.0937500
        k(   15) = (   0.7500000  -0.2500000   0.7500000), wk =   0.0937500
        k(   16) = (   0.6250000  -0.1250000   0.6250000), wk =   0.0937500
        k(   17) = (   0.5000000   0.0000000   0.5000000), wk =   0.0468750
        k(   18) = (   0.0000000   0.7500000   0.0000000), wk =   0.0234375
        k(   19) = (   0.8750000  -0.1250000   0.8750000), wk =   0.0937500
        k(   20) = (   0.7500000   0.0000000   0.7500000), wk =   0.0468750
        k(   21) = (   0.0000000  -1.0000000   0.0000000), wk =   0.0117188
        k(   22) = (  -0.2500000   0.5000000   0.0000000), wk =   0.0937500
        k(   23) = (   0.6250000  -0.3750000   0.8750000), wk =   0.1875000
        k(   24) = (   0.5000000  -0.2500000   0.7500000), wk =   0.0937500
        k(   25) = (   0.7500000  -0.2500000   1.0000000), wk =   0.0937500
        k(   26) = (   0.6250000  -0.1250000   0.8750000), wk =   0.1875000
        k(   27) = (   0.5000000   0.0000000   0.7500000), wk =   0.0937500
        k(   28) = (  -0.2500000  -1.0000000   0.0000000), wk =   0.0468750
        k(   29) = (  -0.5000000  -1.0000000   0.0000000), wk =   0.0234375

     Dense  grid:    19603 G-vectors     FFT dimensions: (  40,  40,  40)

     Estimated max dynamical RAM per process >      15.46 MB

     Initial potential from superposition of free atoms

     starting charge       3.9995, renormalised to       4.0000
     Starting wfcs are    4 randomized atomic wfcs

     total cpu time spent up to now is        0.3 secs

     Self-consistent Calculation

     iteration #  1     ecut=    60.00 Ry     beta= 0.70
     Davidson diagonalization with overlap
     ethr =  1.00E-02,  avg # of iterations =  1.0

     Threshold (ethr) on eigenvalues was too large:
     Diagonalizing with lowered threshold

     Davidson diagonalization with overlap
     ethr =  9.80E-05,  avg # of iterations =  2.7

     total cpu time spent up to now is        0.7 secs

     total energy              =      -7.67590092 Ry
     estimated scf accuracy    <       0.00435054 Ry

     iteration #  2     ecut=    60.00 Ry     beta= 0.70
     Davidson diagonalization with overlap
     ethr =  1.09E-04,  avg # of iterations =  1.1

     total cpu time spent up to now is        0.9 secs

     total energy              =      -7.67627868 Ry
     estimated scf accuracy    <       0.00007499 Ry

     iteration #  3     ecut=    60.00 Ry     beta= 0.70
     Davidson diagonalization with overlap
     ethr =  1.87E-06,  avg # of iterations =  2.2

     total cpu time spent up to now is        1.2 secs

     total energy              =      -7.67630346 Ry
     estimated scf accuracy    <       0.00000235 Ry

     iteration #  4     ecut=    60.00 Ry     beta= 0.70
     Davidson diagonalization with overlap
     ethr =  5.88E-08,  avg # of iterations =  4.2

     total cpu time spent up to now is        1.5 secs

     total energy              =      -7.67630681 Ry
     estimated scf accuracy    <       0.00000007 Ry

     iteration #  5     ecut=    60.00 Ry     beta= 0.70
     Davidson diagonalization with overlap
     ethr =  1.63E-09,  avg # of iterations =  4.4

     total cpu time spent up to now is        1.8 secs

     End of self-consistent calculation

          k = 0.0000 0.0000 0.0000 (  2445 PWs)   bands (ev):

    -7.3229   3.0366

          k =-0.1250 0.1250-0.1250 (  2475 PWs)   bands (ev):

    -7.1727   2.1218

          k =-0.2500 0.2500-0.2500 (  2463 PWs)   bands (ev):

    -6.7540   0.4941

          k =-0.3750 0.3750-0.3750 (  2458 PWs)   bands (ev):

    -6.2065  -0.9159

          k = 0.5000-0.5000 0.5000 (  2452 PWs)   bands (ev):

    -5.9091  -1.5169

          k = 0.0000 0.2500 0.0000 (  2469 PWs)   bands (ev):

    -7.1225   2.2225

          k =-0.1250 0.3750-0.1250 (  2471 PWs)   bands (ev):

    -6.7919   0.9913

          k =-0.2500 0.5000-0.2500 (  2469 PWs)   bands (ev):

    -6.2751  -0.4225

          k = 0.6250-0.3750 0.6250 (  2457 PWs)   bands (ev):

    -5.8546  -1.2999

          k = 0.5000-0.2500 0.5000 (  2445 PWs)   bands (ev):

    -5.9572  -1.0988

          k = 0.3750-0.1250 0.3750 (  2463 PWs)   bands (ev):

    -6.4594   0.0219

          k = 0.2500 0.0000 0.2500 (  2459 PWs)   bands (ev):

    -6.9319   1.3445

          k = 0.0000 0.5000 0.0000 (  2477 PWs)   bands (ev):

    -6.5622   0.8124

          k =-0.1250 0.6250-0.1250 (  2454 PWs)   bands (ev):

    -6.1303  -0.0680

          k = 0.7500-0.2500 0.7500 (  2454 PWs)   bands (ev):

    -5.7003  -0.8036

          k = 0.6250-0.1250 0.6250 (  2447 PWs)   bands (ev):

    -5.6346  -0.8548

          k = 0.5000 0.0000 0.5000 (  2437 PWs)   bands (ev):

    -6.0028  -0.3545

          k = 0.0000 0.7500 0.0000 (  2450 PWs)   bands (ev):

    -5.8196  -0.4718

          k = 0.8750-0.1250 0.8750 (  2448 PWs)   bands (ev):

    -5.5038  -0.8314

          k = 0.7500 0.0000 0.7500 (  2440 PWs)   bands (ev):

    -5.4231  -0.6083

          k = 0.0000-1.0000 0.0000 (  2450 PWs)   bands (ev):

    -5.4052  -1.0714

          k =-0.2500 0.5000 0.0000 (  2460 PWs)   bands (ev):

    -6.4066   0.2909

          k = 0.6250-0.3750 0.8750 (  2449 PWs)   bands (ev):

    -5.9174  -0.6140

          k = 0.5000-0.2500 0.7500 (  2448 PWs)   bands (ev):

    -5.6623  -1.0708

          k = 0.7500-0.2500 1.0000 (  2435 PWs)   bands (ev):

    -5.7367  -0.5020

          k = 0.6250-0.1250 0.8750 (  2454 PWs)   bands (ev):

    -5.4659  -0.6227

          k = 0.5000 0.0000 0.7500 (  2462 PWs)   bands (ev):

    -5.5577  -0.4883

          k =-0.2500-1.0000 0.0000 (  2444 PWs)   bands (ev):

    -5.3843  -0.8386

          k =-0.5000-1.0000 0.0000 (  2468 PWs)   bands (ev):

    -5.3631  -0.1698

     highest occupied level (ev):     3.0366

!    total energy              =      -7.67630692 Ry
     estimated scf accuracy    <          1.5E-10 Ry

     The total energy is the sum of the following terms:
     one-electron contribution =       0.56862460 Ry
     hartree contribution      =       0.53479769 Ry
     xc contribution           =      -1.97237544 Ry
     ewald contribution        =      -6.80735376 Ry

     convergence has been achieved in   5 iterations

     Forces acting on atoms (cartesian axes, Ry/au):

     atom    1 type  1   force =     0.00000000    0.00000000    0.00000000
     The non-local contrib.  to forces
     atom    1 type  1   force =     0.00000000    0.00000000    0.00000000
     The ionic contribution  to forces
     atom    1 type  1   force =    -0.00000000   -0.00000000   -0.00000000
     The local contribution  to forces
     atom    1 type  1   force =     0.00000000   -0.00000000   -0.00000000
     The core correction contribution to forces
     atom    1 type  1   force =     0.00000000    0.00000000    0.00000000
     The Hubbard contrib.    to forces
     atom    1 type  1   force =     0.00000000    0.00000000    0.00000000
     The SCF correction term to forces
     atom    1 type  1   force =     0.00000000    0.00000000   -0.00000000

     Total force =     0.000000     Total SCF correction =     0.000000


     Computing stress (Cartesian axis) and pressure

          total   stress  (Ry/bohr**3)                   (kbar)     P=      -74.33
  -0.00050528  -0.00000000   0.00000000          -74.33       -0.00        0.00
   0.00000000  -0.00050528  -0.00000000            0.00      -74.33       -0.00
   0.00000000  -0.00000000  -0.00050528            0.00       -0.00      -74.33


     BFGS Geometry Optimization
     Energy error            =      0.0E+00 Ry
     Gradient error          =      0.0E+00 Ry/Bohr
     Cell gradient error     =      7.4E+01 kbar

     number of scf cycles    =   1
     number of bfgs steps    =   0

     enthalpy           new  =      -7.6763069176 Ry

     new trust radius        =       0.0446864074 bohr
     new conv_thr            =       0.0000000100 Ry

     new unit-cell volume =    301.14864 a.u.^3 (    44.62562 Ang^3 )
     density =      0.44693 g/cm^3

CELL_PARAMETERS (alat= 10.77625694)
  -0.493683979  -0.000000000   0.493683979
   0.000000000   0.493683979   0.493683979
  -0.493683979   0.493683979   0.000000000

ATOMIC_POSITIONS (alat)
Si            0.0000000000        0.0000000000        0.0000000000



     Writing config-only to output data dir ./SCRATCH/silicon.save/
     NEW-OLD atomic charge density approx. for the potential
     extrapolated charge    3.84452, renormalised to    4.00000

     total cpu time spent up to now is        2.4 secs

     Self-consistent Calculation

     iteration #  1     ecut=    60.00 Ry     beta= 0.70
     Davidson diagonalization with overlap
     ethr =  1.00E-06,  avg # of iterations =  4.0

     total cpu time spent up to now is        2.8 secs

     total energy              =      -7.68176991 Ry
     estimated scf accuracy    <       0.00043522 Ry

     iteration #  2     ecut=    60.00 Ry     beta= 0.70
     Davidson diagonalization with overlap
     ethr =  1.09E-05,  avg # of iterations =  2.0

     total cpu time spent up to now is        3.0 secs

     total energy              =      -7.68229648 Ry
     estimated scf accuracy    <       0.00013926 Ry

     iteration #  3     ecut=    60.00 Ry     beta= 0.70
     Davidson diagonalization with overlap
     ethr =  3.48E-06,  avg # of iterations =  1.0

     total cpu time spent up to now is        3.2 secs

     total energy              =      -7.68228792 Ry
     estimated scf accuracy    <       0.00002757 Ry

     iteration #  4     ecut=    60.00 Ry     beta= 0.70
     Davidson diagonalization with overlap
     ethr =  6.89E-07,  avg # of iterations =  1.6

     total cpu time spent up to now is        3.4 secs

     total energy              =      -7.68229048 Ry
     estimated scf accuracy    <       0.00000076 Ry

     iteration #  5     ecut=    60.00 Ry     beta= 0.70
     Davidson diagonalization with overlap
     ethr =  1.89E-08,  avg # of iterations =  3.0

     total cpu time spent up to now is        3.7 secs

     total energy              =      -7.68229144 Ry
     estimated scf accuracy    <       0.00000006 Ry

     iteration #  6     ecut=    60.00 Ry     beta= 0.70
     Davidson diagonalization with overlap
     ethr =  1.56E-09,  avg # of iterations =  1.8

     total cpu time spent up to now is        3.9 secs

     total energy              =      -7.68229138 Ry
     estimated scf accuracy    <       0.00000013 Ry

     iteration #  7     ecut=    60.00 Ry     beta= 0.70
     Davidson diagonalization with overlap
     ethr =  1.56E-09,  avg # of iterations =  2.0

     total cpu time spent up to now is        4.1 secs

     End of self-consistent calculation

          k = 0.0000 0.0000 0.0000 (  2445 PWs)   bands (ev):

    -7.2296   3.3767

          k =-0.1266 0.1266-0.1266 (  2475 PWs)   bands (ev):

    -7.0709   2.4190

          k =-0.2532 0.2532-0.2532 (  2463 PWs)   bands (ev):

    -6.6260   0.7124

          k =-0.3798 0.3798-0.3798 (  2458 PWs)   bands (ev):

    -6.0357  -0.7765

          k = 0.5064-0.5064 0.5064 (  2452 PWs)   bands (ev):

    -5.7082  -1.4202

          k = 0.0000 0.2532 0.0000 (  2469 PWs)   bands (ev):

    -7.0178   2.5366

          k =-0.1266 0.3798-0.1266 (  2471 PWs)   bands (ev):

    -6.6668   1.2417

          k =-0.2532 0.5064-0.2532 (  2469 PWs)   bands (ev):

    -6.1118  -0.2529

          k = 0.6330-0.3798 0.6330 (  2457 PWs)   bands (ev):

    -5.6506  -1.1920

          k = 0.5064-0.2532 0.5064 (  2445 PWs)   bands (ev):

    -5.7643  -0.9756

          k = 0.3798-0.1266 0.3798 (  2463 PWs)   bands (ev):

    -6.3107   0.2184

          k = 0.2532 0.0000 0.2532 (  2459 PWs)   bands (ev):

    -6.8156   1.6125

          k = 0.0000 0.5064 0.0000 (  2477 PWs)   bands (ev):

    -6.4221   1.0672

          k =-0.1266 0.6330-0.1266 (  2454 PWs)   bands (ev):

    -5.9573   0.1322

          k = 0.7596-0.2532 0.7596 (  2454 PWs)   bands (ev):

    -5.4853  -0.6666

          k = 0.6330-0.1266 0.6330 (  2447 PWs)   bands (ev):

    -5.4112  -0.7299

          k = 0.5064 0.0000 0.5064 (  2437 PWs)   bands (ev):

    -5.8168  -0.1803

          k = 0.0000 0.7596 0.0000 (  2450 PWs)   bands (ev):

    -5.6198  -0.2978

          k = 0.8862-0.1266 0.8862 (  2448 PWs)   bands (ev):

    -5.2701  -0.6939

          k = 0.7596 0.0000 0.7596 (  2440 PWs)   bands (ev):

    -5.1782  -0.4718

          k = 0.0000-1.0128 0.0000 (  2450 PWs)   bands (ev):

    -5.1600  -0.9523

          k =-0.2532 0.5064 0.0000 (  2460 PWs)   bands (ev):

    -6.2547   0.5108

          k = 0.6330-0.3798 0.8862 (  2449 PWs)   bands (ev):

    -5.7235  -0.4598

          k = 0.5064-0.2532 0.7596 (  2448 PWs)   bands (ev):

    -5.4409  -0.9570

          k = 0.7596-0.2532 1.0128 (  2435 PWs)   bands (ev):

    -5.5276  -0.3359

          k = 0.6330-0.1266 0.8862 (  2454 PWs)   bands (ev):

    -5.2260  -0.4857

          k = 0.5064 0.0000 0.7596 (  2462 PWs)   bands (ev):

    -5.3276  -0.3409

          k =-0.2532-1.0128 0.0000 (  2444 PWs)   bands (ev):

    -5.1361  -0.7108

          k =-0.5064-1.0128 0.0000 (  2468 PWs)   bands (ev):

    -5.1116  -0.0154

     highest occupied level (ev):     3.3767

!    total energy              =      -7.68229139 Ry
     estimated scf accuracy    <          8.3E-11 Ry

     The total energy is the sum of the following terms:
     one-electron contribution =       0.68407405 Ry
     hartree contribution      =       0.50899671 Ry
     xc contribution           =      -1.98091748 Ry
     ewald contribution        =      -6.89444467 Ry

     convergence has been achieved in   7 iterations

     Forces acting on atoms (cartesian axes, Ry/au):

     atom    1 type  1   force =     0.00000000    0.00000000    0.00000000
     The non-local contrib.  to forces
     atom    1 type  1   force =    -0.00000000   -0.00000000    0.00000000
     The ionic contribution  to forces
     atom    1 type  1   force =    -0.00000000   -0.00000000   -0.00000000
     The local contribution  to forces
     atom    1 type  1   force =    -0.00000000   -0.00000000   -0.00000000
     The core correction contribution to forces
     atom    1 type  1   force =     0.00000000    0.00000000    0.00000000
     The Hubbard contrib.    to forces
     atom    1 type  1   force =     0.00000000    0.00000000    0.00000000
     The SCF correction term to forces
     atom    1 type  1   force =     0.00000000    0.00000000   -0.00000000

     Total force =     0.000000     Total SCF correction =     0.000000


     Computing stress (Cartesian axis) and pressure

          total   stress  (Ry/bohr**3)                   (kbar)     P=      -76.03
  -0.00051685   0.00000000   0.00000000          -76.03        0.00        0.00
   0.00000000  -0.00051685   0.00000000            0.00      -76.03        0.00
  -0.00000000   0.00000000  -0.00051685           -0.00        0.00      -76.03

     Energy error            =      6.0E-03 Ry
     Gradient error          =      0.0E+00 Ry/Bohr
     Cell gradient error     =      7.6E+01 kbar

     number of scf cycles    =   2
     number of bfgs steps    =   1

     enthalpy           old  =      -7.6763069176 Ry
     enthalpy           new  =      -7.6822913930 Ry

     CASE: enthalpy          _new < enthalpy          _old


     WARNING: bfgs curvature condition failed, Theta= 0.802
     new trust radius        =       0.0666049052 bohr
     new conv_thr            =            1.0E-10 Ry

     new unit-cell volume =    284.14167 a.u.^3 (    42.10545 Ang^3 )
     density =      0.47369 g/cm^3

CELL_PARAMETERS (alat= 10.77625694)
  -0.484209948  -0.000000000   0.484209948
   0.000000000   0.484209948   0.484209948
  -0.484209948   0.484209948   0.000000000

ATOMIC_POSITIONS (alat)
Si            0.0000000000        0.0000000000        0.0000000000



     Writing config-only to output data dir ./SCRATCH/silicon.save/
     NEW-OLD atomic charge density approx. for the potential
     extrapolated charge    3.76061, renormalised to    4.00000

     total cpu time spent up to now is        4.7 secs

     Self-consistent Calculation

     iteration #  1     ecut=    60.00 Ry     beta= 0.70
     Davidson diagonalization with overlap
     ethr =  1.00E-06,  avg # of iterations =  4.4

     total cpu time spent up to now is        5.1 secs

     total energy              =      -7.69009411 Ry
     estimated scf accuracy    <       0.00100275 Ry

     iteration #  2     ecut=    60.00 Ry     beta= 0.70
     Davidson diagonalization with overlap
     ethr =  2.51E-05,  avg # of iterations =  2.0

     total cpu time spent up to now is        5.4 secs

     total energy              =      -7.69121402 Ry
     estimated scf accuracy    <       0.00026449 Ry

     iteration #  3     ecut=    60.00 Ry     beta= 0.70
     Davidson diagonalization with overlap
     ethr =  6.61E-06,  avg # of iterations =  1.0

     total cpu time spent up to now is        5.5 secs

     total energy              =      -7.69119929 Ry
     estimated scf accuracy    <       0.00004988 Ry

     iteration #  4     ecut=    60.00 Ry     beta= 0.70
     Davidson diagonalization with overlap
     ethr =  1.25E-06,  avg # of iterations =  1.6

     total cpu time spent up to now is        5.7 secs

     total energy              =      -7.69120466 Ry
     estimated scf accuracy    <       0.00000100 Ry

     iteration #  5     ecut=    60.00 Ry     beta= 0.70
     Davidson diagonalization with overlap
     ethr =  2.49E-08,  avg # of iterations =  3.2

     total cpu time spent up to now is        6.0 secs

     total energy              =      -7.69120660 Ry
     estimated scf accuracy    <       0.00000009 Ry

     iteration #  6     ecut=    60.00 Ry     beta= 0.70
     Davidson diagonalization with overlap
     ethr =  2.33E-09,  avg # of iterations =  1.9

     total cpu time spent up to now is        6.3 secs

     total energy              =      -7.69120649 Ry
     estimated scf accuracy    <       0.00000024 Ry

     iteration #  7     ecut=    60.00 Ry     beta= 0.70
     Davidson diagonalization with overlap
     ethr =  2.33E-09,  avg # of iterations =  2.0

     total cpu time spent up to now is        6.5 secs

     End of self-consistent calculation

          k = 0.0000 0.0000 0.0000 (  2445 PWs)   bands (ev):

    -7.0868   3.9211

          k =-0.1291 0.1291-0.1291 (  2475 PWs)   bands (ev):

    -6.9147   2.8949

          k =-0.2582 0.2582-0.2582 (  2463 PWs)   bands (ev):

    -6.4288   1.0633

          k =-0.3872 0.3872-0.3872 (  2458 PWs)   bands (ev):

    -5.7700  -0.5517

          k = 0.5163-0.5163 0.5163 (  2452 PWs)   bands (ev):

    -5.3915  -1.2660

          k = 0.0000 0.2582 0.0000 (  2469 PWs)   bands (ev):

    -6.8572   3.0424

          k =-0.1291 0.3872-0.1291 (  2471 PWs)   bands (ev):

    -6.4743   1.6449

          k =-0.2582 0.5163-0.2582 (  2469 PWs)   bands (ev):

    -5.8585   0.0211

          k = 0.6454-0.3872 0.6454 (  2457 PWs)   bands (ev):

    -5.3295  -1.0196

          k = 0.5163-0.2582 0.5163 (  2445 PWs)   bands (ev):

    -5.4618  -0.7778

          k = 0.3872-0.1291 0.3872 (  2463 PWs)   bands (ev):

    -6.0807   0.5355

          k = 0.2582 0.0000 0.2582 (  2459 PWs)   bands (ev):

    -6.6369   2.0442

          k = 0.0000 0.5163 0.0000 (  2477 PWs)   bands (ev):

    -6.2062   1.4813

          k =-0.1291 0.6454-0.1291 (  2454 PWs)   bands (ev):

    -5.6887   0.4580

          k = 0.7745-0.2582 0.7745 (  2454 PWs)   bands (ev):

    -5.1467  -0.4464

          k = 0.6454-0.1291 0.6454 (  2447 PWs)   bands (ev):

    -5.0579  -0.5310

          k = 0.5163 0.0000 0.5163 (  2437 PWs)   bands (ev):

    -5.5267   0.1024

          k = 0.0000 0.7745 0.0000 (  2450 PWs)   bands (ev):

    -5.3078  -0.0141

          k = 0.9035-0.1291 0.9035 (  2448 PWs)   bands (ev):

    -4.9003  -0.4727

          k = 0.7745 0.0000 0.7745 (  2440 PWs)   bands (ev):

    -4.7880  -0.2551

          k = 0.0000-1.0326 0.0000 (  2450 PWs)   bands (ev):

    -4.7700  -0.7626

          k =-0.2582 0.5163 0.0000 (  2460 PWs)   bands (ev):

    -6.0198   0.8676

          k = 0.6454-0.3872 0.9035 (  2449 PWs)   bands (ev):

    -5.4204  -0.2108

          k = 0.5163-0.2582 0.7745 (  2448 PWs)   bands (ev):

    -5.0905  -0.7763

          k = 0.7745-0.2582 1.0326 (  2435 PWs)   bands (ev):

    -5.1996  -0.0658

          k = 0.6454-0.1291 0.9035 (  2454 PWs)   bands (ev):

    -4.8448  -0.2674

          k = 0.5163 0.0000 0.7745 (  2462 PWs)   bands (ev):

    -4.9633  -0.1047

          k =-0.2582-1.0326 0.0000 (  2444 PWs)   bands (ev):

    -4.7405  -0.5077

          k =-0.5163-1.0326 0.0000 (  2468 PWs)   bands (ev):

    -4.7101   0.2294

     highest occupied level (ev):     3.9211

!    total energy              =      -7.69120651 Ry
     estimated scf accuracy    <          5.2E-11 Ry

     The total energy is the sum of the following terms:
     one-electron contribution =       0.86192792 Ry
     hartree contribution      =       0.47098650 Ry
     xc contribution           =      -1.99477987 Ry
     ewald contribution        =      -7.02934108 Ry

     convergence has been achieved in   7 iterations

     Forces acting on atoms (cartesian axes, Ry/au):

     atom    1 type  1   force =     0.00000000    0.00000000    0.00000000
     The non-local contrib.  to forces
     atom    1 type  1   force =    -0.00000000    0.00000000    0.00000000
     The ionic contribution  to forces
     atom    1 type  1   force =    -0.00000000   -0.00000000   -0.00000000
     The local contribution  to forces
     atom    1 type  1   force =     0.00000000   -0.00000000   -0.00000000
     The core correction contribution to forces
     atom    1 type  1   force =     0.00000000    0.00000000    0.00000000
     The Hubbard contrib.    to forces
     atom    1 type  1   force =     0.00000000    0.00000000    0.00000000
     The SCF correction term to forces
     atom    1 type  1   force =    -0.00000000    0.00000000    0.00000000

     Total force =     0.000000     Total SCF correction =     0.000000


     Computing stress (Cartesian axis) and pressure

          total   stress  (Ry/bohr**3)                   (kbar)     P=      -78.09
  -0.00053084  -0.00000000  -0.00000000          -78.09       -0.00       -0.00
  -0.00000000  -0.00053084   0.00000000           -0.00      -78.09        0.00
  -0.00000000   0.00000000  -0.00053084           -0.00        0.00      -78.09

     Energy error            =      8.9E-03 Ry
     Gradient error          =      0.0E+00 Ry/Bohr
     Cell gradient error     =      7.8E+01 kbar

     number of scf cycles    =   3
     number of bfgs steps    =   2

     enthalpy           old  =      -7.6822913930 Ry
     enthalpy           new  =      -7.6912065136 Ry

     CASE: enthalpy          _new < enthalpy          _old

     new trust radius        =       0.0989440790 bohr
     new conv_thr            =            1.0E-10 Ry

     new unit-cell volume =    259.85097 a.u.^3 (    38.50594 Ang^3 )
     density =      0.51797 g/cm^3

CELL_PARAMETERS (alat= 10.77625694)
  -0.469998902  -0.000000000   0.469998902
  -0.000000000   0.469998902   0.469998902
  -0.469998902   0.469998902   0.000000000

ATOMIC_POSITIONS (alat)
Si           -0.0000000000        0.0000000000        0.0000000000



     Writing config-only to output data dir ./SCRATCH/silicon.save/
     NEW-OLD atomic charge density approx. for the potential
     extrapolated charge    3.62613, renormalised to    4.00000

     total cpu time spent up to now is        7.1 secs

     Self-consistent Calculation

     iteration #  1     ecut=    60.00 Ry     beta= 0.70
     Davidson diagonalization with overlap
     ethr =  1.00E-06,  avg # of iterations =  5.5

     total cpu time spent up to now is        7.5 secs

     total energy              =      -7.70197607 Ry
     estimated scf accuracy    <       0.00235402 Ry

     iteration #  2     ecut=    60.00 Ry     beta= 0.70
     Davidson diagonalization with overlap
     ethr =  5.89E-05,  avg # of iterations =  2.0

     total cpu time spent up to now is        7.8 secs

     total energy              =      -7.70426755 Ry
     estimated scf accuracy    <       0.00044452 Ry

     iteration #  3     ecut=    60.00 Ry     beta= 0.70
     Davidson diagonalization with overlap
     ethr =  1.11E-05,  avg # of iterations =  1.0

     total cpu time spent up to now is        8.0 secs

     total energy              =      -7.70424750 Ry
     estimated scf accuracy    <       0.00007751 Ry

     iteration #  4     ecut=    60.00 Ry     beta= 0.70
     Davidson diagonalization with overlap
     ethr =  1.94E-06,  avg # of iterations =  1.9

     total cpu time spent up to now is        8.2 secs

     total energy              =      -7.70425876 Ry
     estimated scf accuracy    <       0.00000083 Ry

     iteration #  5     ecut=    60.00 Ry     beta= 0.70
     Davidson diagonalization with overlap
     ethr =  2.07E-08,  avg # of iterations =  3.3

     total cpu time spent up to now is        8.5 secs

     total energy              =      -7.70426158 Ry
     estimated scf accuracy    <       0.00000018 Ry

     iteration #  6     ecut=    60.00 Ry     beta= 0.70
     Davidson diagonalization with overlap
     ethr =  4.51E-09,  avg # of iterations =  1.1

     total cpu time spent up to now is        8.7 secs

     total energy              =      -7.70426146 Ry
     estimated scf accuracy    <       0.00000023 Ry

     iteration #  7     ecut=    60.00 Ry     beta= 0.70
     Davidson diagonalization with overlap
     ethr =  4.51E-09,  avg # of iterations =  2.0

     total cpu time spent up to now is        8.9 secs

     total energy              =      -7.70426149 Ry
     estimated scf accuracy    <          1.1E-10 Ry

     iteration #  8     ecut=    60.00 Ry     beta= 0.70
     Davidson diagonalization with overlap
     ethr =  2.85E-12,  avg # of iterations =  5.2

     total cpu time spent up to now is        9.3 secs

     total energy              =      -7.70426149 Ry
     estimated scf accuracy    <          2.5E-10 Ry

     iteration #  9     ecut=    60.00 Ry     beta= 0.70
     Davidson diagonalization with overlap
     ethr =  2.85E-12,  avg # of iterations =  1.0

     total cpu time spent up to now is        9.5 secs

     total energy              =      -7.70426149 Ry
     estimated scf accuracy    <          1.3E-10 Ry

     iteration # 10     ecut=    60.00 Ry     beta= 0.70
     Davidson diagonalization with overlap
     ethr =  2.85E-12,  avg # of iterations =  2.0

     total cpu time spent up to now is        9.7 secs

     total energy              =      -7.70426149 Ry
     estimated scf accuracy    <          1.4E-09 Ry

     iteration # 11     ecut=    60.00 Ry     beta= 0.70
     Davidson diagonalization with overlap
     ethr =  2.85E-12,  avg # of iterations =  2.0

     total cpu time spent up to now is       10.0 secs

     total energy              =      -7.70426149 Ry
     estimated scf accuracy    <          2.5E-09 Ry

     iteration # 12     ecut=    60.00 Ry     beta= 0.70
     Davidson diagonalization with overlap
     ethr =  2.85E-12,  avg # of iterations =  2.0

     total cpu time spent up to now is       10.2 secs

     total energy              =      -7.70426150 Ry
     estimated scf accuracy    <          5.1E-09 Ry

     iteration # 13     ecut=    60.00 Ry     beta= 0.70
     Davidson diagonalization with overlap
     ethr =  2.85E-12,  avg # of iterations =  3.4

     total cpu time spent up to now is       10.6 secs

     total energy              =      -7.70426149 Ry
     estimated scf accuracy    <       0.00000003 Ry

     iteration # 14     ecut=    60.00 Ry     beta= 0.70
     Davidson diagonalization with overlap
     ethr =  2.85E-12,  avg # of iterations =  4.4

     total cpu time spent up to now is       10.9 secs

     total energy              =      -7.70426149 Ry
     estimated scf accuracy    <          3.5E-09 Ry

     iteration # 15     ecut=    60.00 Ry     beta= 0.70
     Davidson diagonalization with overlap
     ethr =  2.85E-12,  avg # of iterations =  2.4

     total cpu time spent up to now is       11.2 secs

     total energy              =      -7.70426149 Ry
     estimated scf accuracy    <       0.00000001 Ry

     iteration # 16     ecut=    60.00 Ry     beta= 0.70
     Davidson diagonalization with overlap
     ethr =  2.85E-12,  avg # of iterations =  3.0

     total cpu time spent up to now is       11.5 secs

     End of self-consistent calculation

          k = 0.0000 0.0000 0.0000 (  2445 PWs)   bands (ev):

    -6.8653   4.8223

          k =-0.1330 0.1330-0.1330 (  2475 PWs)   bands (ev):

    -6.6723   3.6825

          k =-0.2660 0.2660-0.2660 (  2463 PWs)   bands (ev):

    -6.1211   1.6467

          k =-0.3989 0.3989-0.3989 (  2458 PWs)   bands (ev):

    -5.3492  -0.1749

          k = 0.5319-0.5319 0.5319 (  2452 PWs)   bands (ev):

    -4.8795  -1.0124

          k =-0.0000 0.2660-0.0000 (  2469 PWs)   bands (ev):

    -6.6078   3.8870

          k =-0.1330 0.3989-0.1330 (  2471 PWs)   bands (ev):

    -6.1742   2.3168

          k =-0.2660 0.5319-0.2660 (  2469 PWs)   bands (ev):

    -5.4596   0.4802

          k = 0.6649-0.3989 0.6649 (  2457 PWs)   bands (ev):

    -4.8114  -0.7348

          k = 0.5319-0.2660 0.5319 (  2445 PWs)   bands (ev):

    -4.9780  -0.4477

          k = 0.3989-0.1330 0.3989 (  2463 PWs)   bands (ev):

    -5.7202   1.0660

          k = 0.2660 0.0000 0.2660 (  2459 PWs)   bands (ev):

    -6.3587   2.7644

          k =-0.0000 0.5319-0.0000 (  2477 PWs)   bands (ev):

    -5.8688   2.1822

          k =-0.1330 0.6649-0.1330 (  2454 PWs)   bands (ev):

    -5.2657   1.0111

          k = 0.7979-0.2660 0.7979 (  2454 PWs)   bands (ev):

    -4.6016  -0.0788

          k = 0.6649-0.1330 0.6649 (  2447 PWs)   bands (ev):

    -4.4845  -0.2039

          k = 0.5319 0.0000 0.5319 (  2437 PWs)   bands (ev):

    -5.0663   0.5812

          k =-0.0000 0.7979-0.0000 (  2450 PWs)   bands (ev):

    -4.8120   0.4697

          k = 0.9309-0.1330 0.9309 (  2448 PWs)   bands (ev):

    -4.3000  -0.1018

          k = 0.7979 0.0000 0.7979 (  2440 PWs)   bands (ev):

    -4.1471   0.1000

          k = 0.0000-1.0638 0.0000 (  2450 PWs)   bands (ev):

    -4.1307  -0.4507

          k =-0.2660 0.5319-0.0000 (  2460 PWs)   bands (ev):

    -5.6517   1.4703

          k = 0.6649-0.3989 0.9309 (  2449 PWs)   bands (ev):

    -4.9377   0.2075

          k = 0.5319-0.2660 0.7979 (  2448 PWs)   bands (ev):

    -4.5214  -0.4804

          k = 0.7979-0.2660 1.0638 (  2435 PWs)   bands (ev):

    -4.6752   0.3941

          k = 0.6649-0.1330 0.9309 (  2454 PWs)   bands (ev):

    -4.2215   0.0920

          k = 0.5319 0.0000 0.7979 (  2462 PWs)   bands (ev):

    -4.3714   0.2886

          k =-0.2660-1.0638 0.0000 (  2444 PWs)   bands (ev):

    -4.0903  -0.1743

          k =-0.5319-1.0638 0.0000 (  2468 PWs)   bands (ev):

    -4.0482   0.6292

     highest occupied level (ev):     4.8223

!    total energy              =      -7.70426149 Ry
     estimated scf accuracy    <          2.6E-11 Ry

     The total energy is the sum of the following terms:
     one-electron contribution =       1.14012040 Ry
     hartree contribution      =       0.41558042 Ry
     xc contribution           =      -2.01807970 Ry
     ewald contribution        =      -7.24188262 Ry

     convergence has been achieved in  16 iterations

     Forces acting on atoms (cartesian axes, Ry/au):

     atom    1 type  1   force =     0.00000000    0.00000000    0.00000000
     The non-local contrib.  to forces
     atom    1 type  1   force =    -0.00000000   -0.00000000   -0.00000000
     The ionic contribution  to forces
     atom    1 type  1   force =    -0.00000000   -0.00000000   -0.00000000
     The local contribution  to forces
     atom    1 type  1   force =     0.00000000   -0.00000000   -0.00000000
     The core correction contribution to forces
     atom    1 type  1   force =     0.00000000    0.00000000    0.00000000
     The Hubbard contrib.    to forces
     atom    1 type  1   force =     0.00000000    0.00000000    0.00000000
     The SCF correction term to forces
     atom    1 type  1   force =    -0.00000000   -0.00000000    0.00000000

     Total force =     0.000000     Total SCF correction =     0.000000


     Computing stress (Cartesian axis) and pressure

          total   stress  (Ry/bohr**3)                   (kbar)     P=      -79.69
  -0.00054175  -0.00000000   0.00000000          -79.69       -0.00        0.00
  -0.00000000  -0.00054175  -0.00000000           -0.00      -79.69       -0.00
   0.00000000  -0.00000000  -0.00054175            0.00       -0.00      -79.69

     Energy error            =      1.3E-02 Ry
     Gradient error          =      0.0E+00 Ry/Bohr
     Cell gradient error     =      8.0E+01 kbar

     number of scf cycles    =   4
     number of bfgs steps    =   3

     enthalpy           old  =      -7.6912065136 Ry
     enthalpy           new  =      -7.7042614908 Ry

     CASE: enthalpy          _new < enthalpy          _old

     new trust radius        =       0.1462219722 bohr
     new conv_thr            =            1.0E-10 Ry

     new unit-cell volume =    226.07405 a.u.^3 (    33.50072 Ang^3 )
     density =      0.59535 g/cm^3

CELL_PARAMETERS (alat= 10.77625694)
  -0.448682333  -0.000000000   0.448682333
  -0.000000000   0.448682333   0.448682333
  -0.448682333   0.448682333  -0.000000000

ATOMIC_POSITIONS (alat)
Si           -0.0000000000        0.0000000000        0.0000000000



     Writing config-only to output data dir ./SCRATCH/silicon.save/
     NEW-OLD atomic charge density approx. for the potential
     extrapolated charge    3.40245, renormalised to    4.00000

     total cpu time spent up to now is       12.1 secs

     Self-consistent Calculation

     iteration #  1     ecut=    60.00 Ry     beta= 0.70
     Davidson diagonalization with overlap
     ethr =  1.00E-06,  avg # of iterations =  6.8

     total cpu time spent up to now is       12.6 secs

     total energy              =      -7.71799503 Ry
     estimated scf accuracy    <       0.00579890 Ry

     iteration #  2     ecut=    60.00 Ry     beta= 0.70
     Davidson diagonalization with overlap
     ethr =  1.45E-04,  avg # of iterations =  2.0

     total cpu time spent up to now is       12.8 secs

     total energy              =      -7.72238358 Ry
     estimated scf accuracy    <       0.00057573 Ry

     iteration #  3     ecut=    60.00 Ry     beta= 0.70
     Davidson diagonalization with overlap
     ethr =  1.44E-05,  avg # of iterations =  1.2

     total cpu time spent up to now is       13.0 secs

     total energy              =      -7.72237716 Ry
     estimated scf accuracy    <       0.00008953 Ry

     iteration #  4     ecut=    60.00 Ry     beta= 0.70
     Davidson diagonalization with overlap
     ethr =  2.24E-06,  avg # of iterations =  2.2

     total cpu time spent up to now is       13.2 secs

     total energy              =      -7.72239886 Ry
     estimated scf accuracy    <       0.00000158 Ry

     iteration #  5     ecut=    60.00 Ry     beta= 0.70
     Davidson diagonalization with overlap
     ethr =  3.96E-08,  avg # of iterations =  2.7

     total cpu time spent up to now is       13.5 secs

     total energy              =      -7.72240173 Ry
     estimated scf accuracy    <       0.00000011 Ry

     iteration #  6     ecut=    60.00 Ry     beta= 0.70
     Davidson diagonalization with overlap
     ethr =  2.76E-09,  avg # of iterations =  2.0

     total cpu time spent up to now is       13.7 secs

     total energy              =      -7.72240175 Ry
     estimated scf accuracy    <       0.00000005 Ry

     iteration #  7     ecut=    60.00 Ry     beta= 0.70
     Davidson diagonalization with overlap
     ethr =  1.17E-09,  avg # of iterations =  2.1

     total cpu time spent up to now is       13.9 secs

     total energy              =      -7.72240175 Ry
     estimated scf accuracy    <          1.6E-10 Ry

     iteration #  8     ecut=    60.00 Ry     beta= 0.70
     Davidson diagonalization with overlap
     ethr =  4.00E-12,  avg # of iterations =  4.3

     total cpu time spent up to now is       14.3 secs

     total energy              =      -7.72240175 Ry
     estimated scf accuracy    <          3.3E-10 Ry

     iteration #  9     ecut=    60.00 Ry     beta= 0.70
     Davidson diagonalization with overlap
     ethr =  4.00E-12,  avg # of iterations =  2.0

     total cpu time spent up to now is       14.5 secs

     End of self-consistent calculation

          k = 0.0000 0.0000 0.0000 (  2445 PWs)   bands (ev):

    -6.5140   6.3935

          k =-0.1393 0.1393-0.1393 (  2475 PWs)   bands (ev):

    -6.2875   5.0500

          k =-0.2786 0.2786-0.2786 (  2463 PWs)   bands (ev):

    -5.6308   2.6660

          k =-0.4179 0.4179-0.4179 (  2458 PWs)   bands (ev):

    -4.6676   0.4944

          k = 0.5572-0.5572 0.5572 (  2452 PWs)   bands (ev):

    -4.0203  -0.5741

          k =-0.0000 0.2786-0.0000 (  2469 PWs)   bands (ev):

    -6.2117   5.3770

          k =-0.1393 0.4179-0.1393 (  2471 PWs)   bands (ev):

    -5.6965   3.4934

          k =-0.2786 0.5572-0.2786 (  2469 PWs)   bands (ev):

    -4.8181   1.2935

          k = 0.6965-0.4179 0.6965 (  2457 PWs)   bands (ev):

    -3.9471  -0.2382

          k = 0.5572-0.2786 0.5572 (  2445 PWs)   bands (ev):

    -4.1825   0.1363

          k = 0.4179-0.1393 0.4179 (  2463 PWs)   bands (ev):

    -5.1434   2.0014

          k = 0.2786 0.0000 0.2786 (  2459 PWs)   bands (ev):

    -5.9164   4.0307

          k =-0.0000 0.5572-0.0000 (  2477 PWs)   bands (ev):

    -5.3312   3.4431

          k =-0.1393 0.6965-0.1393 (  2454 PWs)   bands (ev):

    -4.5862   2.0101

          k = 0.8358-0.2786 0.8358 (  2454 PWs)   bands (ev):

    -3.6978   0.5732

          k = 0.6965-0.1393 0.6965 (  2447 PWs)   bands (ev):

    -3.5196   0.3627

          k = 0.5572 0.0000 0.5572 (  2437 PWs)   bands (ev):

    -4.3193   1.4470

          k =-0.0000 0.8358-0.0000 (  2450 PWs)   bands (ev):

    -4.0079   1.3542

          k = 0.9751-0.1393 0.9751 (  2448 PWs)   bands (ev):

    -3.2930   0.5630

          k = 0.8358 0.0000 0.8358 (  2440 PWs)   bands (ev):

    -3.0450   0.7095

          k = 0.0000-1.1144 0.0000 (  2450 PWs)   bands (ev):

    -3.0364   0.0881

          k =-0.2786 0.5572-0.0000 (  2460 PWs)   bands (ev):

    -5.0631   2.5507

          k = 0.6965-0.4179 0.9751 (  2449 PWs)   bands (ev):

    -4.1506   0.9539

          k = 0.5572-0.2786 0.8358 (  2448 PWs)   bands (ev):

    -3.5608   0.0279

          k = 0.8358-0.2786 1.1144 (  2435 PWs)   bands (ev):

    -3.8167   1.2356

          k = 0.6965-0.1393 0.9751 (  2454 PWs)   bands (ev):

    -3.1593   0.7159

          k = 0.5572 0.0000 0.8358 (  2462 PWs)   bands (ev):

    -3.3749   0.9858

          k =-0.2786-1.1144 0.0000 (  2444 PWs)   bands (ev):

    -2.9714   0.3997

          k =-0.5572-1.1144 0.0000 (  2468 PWs)   bands (ev):

    -2.9022   1.3123

     highest occupied level (ev):     6.3935

!    total energy              =      -7.72240175 Ry
     estimated scf accuracy    <          3.3E-11 Ry

     The total energy is the sum of the following terms:
     one-electron contribution =       1.58641764 Ry
     hartree contribution      =       0.33638317 Ry
     xc contribution           =      -2.05926340 Ry
     ewald contribution        =      -7.58593917 Ry

     convergence has been achieved in   9 iterations

     Forces acting on atoms (cartesian axes, Ry/au):

     atom    1 type  1   force =     0.00000000    0.00000000    0.00000000
     The non-local contrib.  to forces
     atom    1 type  1   force =    -0.00000000   -0.00000000   -0.00000000
     The ionic contribution  to forces
     atom    1 type  1   force =    -0.00000000   -0.00000000   -0.00000000
     The local contribution  to forces
     atom    1 type  1   force =     0.00000000   -0.00000000   -0.00000000
     The core correction contribution to forces
     atom    1 type  1   force =     0.00000000    0.00000000    0.00000000
     The Hubbard contrib.    to forces
     atom    1 type  1   force =     0.00000000    0.00000000    0.00000000
     The SCF correction term to forces
     atom    1 type  1   force =    -0.00000000   -0.00000000    0.00000000

     Total force =     0.000000     Total SCF correction =     0.000000


     Computing stress (Cartesian axis) and pressure

          total   stress  (Ry/bohr**3)                   (kbar)     P=      -77.04
  -0.00052374  -0.00000000  -0.00000000          -77.04       -0.00       -0.00
  -0.00000000  -0.00052374   0.00000000           -0.00      -77.04        0.00
  -0.00000000   0.00000000  -0.00052374           -0.00        0.00      -77.04

     Energy error            =      1.8E-02 Ry
     Gradient error          =      0.0E+00 Ry/Bohr
     Cell gradient error     =      7.7E+01 kbar

     number of scf cycles    =   5
     number of bfgs steps    =   4

     enthalpy           old  =      -7.7042614908 Ry
     enthalpy           new  =      -7.7224017541 Ry

     CASE: enthalpy          _new < enthalpy          _old

     new trust radius        =       0.2143013757 bohr
     new conv_thr            =            1.0E-10 Ry

     new unit-cell volume =    181.10385 a.u.^3 (    26.83682 Ang^3 )
     density =      0.74319 g/cm^3

CELL_PARAMETERS (alat= 10.77625694)
  -0.416707478  -0.000000000   0.416707478
  -0.000000000   0.416707478   0.416707478
  -0.416707478   0.416707478  -0.000000000

ATOMIC_POSITIONS (alat)
Si           -0.0000000000        0.0000000000        0.0000000000



     Writing config-only to output data dir ./SCRATCH/silicon.save/
     NEW-OLD atomic charge density approx. for the potential
     extrapolated charge    3.00688, renormalised to    4.00000

     total cpu time spent up to now is       15.1 secs

     Self-consistent Calculation

     iteration #  1     ecut=    60.00 Ry     beta= 0.70
     Davidson diagonalization with overlap
     ethr =  1.00E-06,  avg # of iterations =  7.9

     total cpu time spent up to now is       15.7 secs

     total energy              =      -7.73610438 Ry
     estimated scf accuracy    <       0.01593576 Ry

     iteration #  2     ecut=    60.00 Ry     beta= 0.70
     Davidson diagonalization with overlap
     ethr =  3.98E-04,  avg # of iterations =  2.0

     total cpu time spent up to now is       15.9 secs

     total energy              =      -7.74310076 Ry
     estimated scf accuracy    <       0.00027941 Ry

     iteration #  3     ecut=    60.00 Ry     beta= 0.70
     Davidson diagonalization with overlap
     ethr =  6.99E-06,  avg # of iterations =  2.7

     total cpu time spent up to now is       16.2 secs

     total energy              =      -7.74320414 Ry
     estimated scf accuracy    <       0.00005895 Ry

     iteration #  4     ecut=    60.00 Ry     beta= 0.70
     Davidson diagonalization with overlap
     ethr =  1.47E-06,  avg # of iterations =  2.0

     total cpu time spent up to now is       16.4 secs

     total energy              =      -7.74321044 Ry
     estimated scf accuracy    <       0.00000866 Ry

     iteration #  5     ecut=    60.00 Ry     beta= 0.70
     Davidson diagonalization with overlap
     ethr =  2.17E-07,  avg # of iterations =  1.2

     total cpu time spent up to now is       16.6 secs

     total energy              =      -7.74321094 Ry
     estimated scf accuracy    <       0.00000025 Ry

     iteration #  6     ecut=    60.00 Ry     beta= 0.70
     Davidson diagonalization with overlap
     ethr =  6.34E-09,  avg # of iterations =  2.6

     total cpu time spent up to now is       16.8 secs

     total energy              =      -7.74321112 Ry
     estimated scf accuracy    <       0.00000003 Ry

     iteration #  7     ecut=    60.00 Ry     beta= 0.70
     Davidson diagonalization with overlap
     ethr =  7.18E-10,  avg # of iterations =  2.4

     total cpu time spent up to now is       17.1 secs

     total energy              =      -7.74321101 Ry
     estimated scf accuracy    <       0.00000026 Ry

     iteration #  8     ecut=    60.00 Ry     beta= 0.70
     Davidson diagonalization with overlap
     ethr =  7.18E-10,  avg # of iterations =  2.0

     total cpu time spent up to now is       17.3 secs

     total energy              =      -7.74321103 Ry
     estimated scf accuracy    <          6.6E-10 Ry

     iteration #  9     ecut=    60.00 Ry     beta= 0.70
     Davidson diagonalization with overlap
     ethr =  1.65E-11,  avg # of iterations =  2.7

     total cpu time spent up to now is       17.6 secs

     total energy              =      -7.74321103 Ry
     estimated scf accuracy    <          7.4E-10 Ry

     iteration # 10     ecut=    60.00 Ry     beta= 0.70
     Davidson diagonalization with overlap
     ethr =  1.65E-11,  avg # of iterations =  2.0

     total cpu time spent up to now is       17.8 secs

     total energy              =      -7.74321103 Ry
     estimated scf accuracy    <          2.6E-10 Ry

     iteration # 11     ecut=    60.00 Ry     beta= 0.70
     Davidson diagonalization with overlap
     ethr =  6.58E-12,  avg # of iterations =  1.0

     total cpu time spent up to now is       18.0 secs

     total energy              =      -7.74321103 Ry
     estimated scf accuracy    <          1.7E-10 Ry

     iteration # 12     ecut=    60.00 Ry     beta= 0.70
     Davidson diagonalization with overlap
     ethr =  4.27E-12,  avg # of iterations =  1.0

     total cpu time spent up to now is       18.2 secs

     total energy              =      -7.74321103 Ry
     estimated scf accuracy    <          1.1E-10 Ry

     iteration # 13     ecut=    60.00 Ry     beta= 0.70
     Davidson diagonalization with overlap
     ethr =  2.64E-12,  avg # of iterations =  1.0

     total cpu time spent up to now is       18.4 secs

     total energy              =      -7.74321103 Ry
     estimated scf accuracy    <          1.5E-10 Ry

     iteration # 14     ecut=    60.00 Ry     beta= 0.70
     Davidson diagonalization with overlap
     ethr =  2.64E-12,  avg # of iterations =  1.0

     total cpu time spent up to now is       18.6 secs

     End of self-consistent calculation

          k = 0.0000 0.0000 0.0000 (  2445 PWs)   bands (ev):

    -5.9279   9.3655

          k =-0.1500 0.1500-0.1500 (  2475 PWs)   bands (ev):

    -5.6460   7.5944

          k =-0.3000 0.3000-0.3000 (  2463 PWs)   bands (ev):

    -4.8154   4.5760

          k =-0.4500 0.4500-0.4500 (  2458 PWs)   bands (ev):

    -3.5243   1.7942

          k = 0.5999-0.5999 0.5999 (  2452 PWs)   bands (ev):

    -2.4923   0.2475

          k =-0.0000 0.3000-0.0000 (  2469 PWs)   bands (ev):

    -5.5518   8.2373

          k =-0.1500 0.4500-0.1500 (  2471 PWs)   bands (ev):

    -4.9026   5.6967

          k =-0.3000 0.5999-0.3000 (  2469 PWs)   bands (ev):

    -3.7500   2.8533

          k = 0.7499-0.4500 0.7499 (  2457 PWs)   bands (ev):

    -2.4348   0.7111

          k = 0.5999-0.3000 0.5999 (  2445 PWs)   bands (ev):

    -2.8262   1.2740

          k = 0.4500-0.1500 0.4500 (  2463 PWs)   bands (ev):

    -4.1847   3.7757

          k = 0.3000 0.0000 0.3000 (  2459 PWs)   bands (ev):

    -5.1803   6.4346

          k =-0.0000 0.5999-0.0000 (  2477 PWs)   bands (ev):

    -4.4396   5.9251

          k =-0.1500 0.7499-0.1500 (  2454 PWs)   bands (ev):

    -3.4595   3.9783

          k = 0.8999-0.3000 0.8999 (  2454 PWs)   bands (ev):

    -2.1481   1.8507

          k = 0.7499-0.1500 0.7499 (  2447 PWs)   bands (ev):

    -1.8158   1.4346

          k = 0.5999 0.0000 0.5999 (  2437 PWs)   bands (ev):

    -3.0693   3.1748

          k =-0.0000 0.8999-0.0000 (  2450 PWs)   bands (ev):

    -2.6711   3.1464

          k = 1.0499-0.1500 1.0499 (  2448 PWs)   bands (ev):

    -1.5461   1.9096

          k = 0.8999 0.0000 0.8999 (  2440 PWs)   bands (ev):

    -1.0118   1.8396

          k = 0.0000-1.1999 0.0000 (  2450 PWs)   bands (ev):

    -1.0404   1.0961

          k =-0.3000 0.5999-0.0000 (  2460 PWs)   bands (ev):

    -4.0864   4.6599

          k = 0.7499-0.4500 1.0499 (  2449 PWs)   bands (ev):

    -2.8276   2.4098

          k = 0.5999-0.3000 0.8999 (  2448 PWs)   bands (ev):

    -1.8461   0.9712

          k = 0.8999-0.3000 1.1999 (  2435 PWs)   bands (ev):

    -2.3746   2.9647

          k = 0.7499-0.1500 1.0499 (  2454 PWs)   bands (ev):

    -1.2477   1.9042

          k = 0.5999 0.0000 0.8999 (  2462 PWs)   bands (ev):

    -1.6242   2.3689

          k =-0.3000-1.1999 0.0000 (  2444 PWs)   bands (ev):

    -0.9084   1.4685

          k =-0.5999-1.1999 0.0000 (  2468 PWs)   bands (ev):

    -0.7581   2.5692

     highest occupied level (ev):     9.3655

!    total energy              =      -7.74321103 Ry
     estimated scf accuracy    <          2.4E-11 Ry

     The total energy is the sum of the following terms:
     one-electron contribution =       2.33470301 Ry
     hartree contribution      =       0.22763182 Ry
     xc contribution           =      -2.13752138 Ry
     ewald contribution        =      -8.16802447 Ry

     convergence has been achieved in  14 iterations

     Forces acting on atoms (cartesian axes, Ry/au):

     atom    1 type  1   force =     0.00000000    0.00000000    0.00000000
     The non-local contrib.  to forces
     atom    1 type  1   force =     0.00000000    0.00000000   -0.00000000
     The ionic contribution  to forces
     atom    1 type  1   force =    -0.00000000   -0.00000000   -0.00000000
     The local contribution  to forces
     atom    1 type  1   force =     0.00000000   -0.00000000   -0.00000000
     The core correction contribution to forces
     atom    1 type  1   force =     0.00000000    0.00000000    0.00000000
     The Hubbard contrib.    to forces
     atom    1 type  1   force =     0.00000000    0.00000000    0.00000000
     The SCF correction term to forces
     atom    1 type  1   force =     0.00000000    0.00000000   -0.00000000

     Total force =     0.000000     Total SCF correction =     0.000000


     Computing stress (Cartesian axis) and pressure

          total   stress  (Ry/bohr**3)                   (kbar)     P=      -53.46
  -0.00036344   0.00000000  -0.00000000          -53.46        0.00       -0.00
   0.00000000  -0.00036344  -0.00000000            0.00      -53.46       -0.00
  -0.00000000  -0.00000000  -0.00036344           -0.00       -0.00      -53.46

     Energy error            =      2.1E-02 Ry
     Gradient error          =      0.0E+00 Ry/Bohr
     Cell gradient error     =      5.3E+01 kbar

     number of scf cycles    =   6
     number of bfgs steps    =   5

     enthalpy           old  =      -7.7224017541 Ry
     enthalpy           new  =      -7.7432110274 Ry

     CASE: enthalpy          _new < enthalpy          _old

     new trust radius        =       0.3079267820 bohr
     new conv_thr            =            1.0E-10 Ry

     new unit-cell volume =    125.78528 a.u.^3 (    18.63946 Ang^3 )
     density =      1.07003 g/cm^3

CELL_PARAMETERS (alat= 10.77625694)
  -0.369033113  -0.000000000   0.369033113
  -0.000000000   0.369033113   0.369033113
  -0.369033113   0.369033113   0.000000000

ATOMIC_POSITIONS (alat)
Si           -0.0000000000        0.0000000000        0.0000000000



     Writing config-only to output data dir ./SCRATCH/silicon.save/
     NEW-OLD atomic charge density approx. for the potential
     extrapolated charge    2.24108, renormalised to    4.00000

     total cpu time spent up to now is       19.1 secs

     Self-consistent Calculation

     iteration #  1     ecut=    60.00 Ry     beta= 0.70
     Davidson diagonalization with overlap
     ethr =  1.00E-06,  avg # of iterations =  9.1

     total cpu time spent up to now is       19.8 secs

     total energy              =      -7.74126319 Ry
     estimated scf accuracy    <       0.06132681 Ry

     iteration #  2     ecut=    60.00 Ry     beta= 0.70
     Davidson diagonalization with overlap
     ethr =  1.53E-03,  avg # of iterations =  1.0

     total cpu time spent up to now is       20.0 secs

     total energy              =      -7.74458882 Ry
     estimated scf accuracy    <       0.00146847 Ry

     iteration #  3     ecut=    60.00 Ry     beta= 0.70
     Davidson diagonalization with overlap
     ethr =  3.67E-05,  avg # of iterations =  2.5

     total cpu time spent up to now is       20.2 secs

     total energy              =      -7.74522266 Ry
     estimated scf accuracy    <       0.00001090 Ry

     iteration #  4     ecut=    60.00 Ry     beta= 0.70
     Davidson diagonalization with overlap
     ethr =  2.73E-07,  avg # of iterations =  3.5

     total cpu time spent up to now is       20.5 secs

     total energy              =      -7.74524144 Ry
     estimated scf accuracy    <       0.00000019 Ry

     iteration #  5     ecut=    60.00 Ry     beta= 0.70
     Davidson diagonalization with overlap
     ethr =  4.83E-09,  avg # of iterations =  2.9

     total cpu time spent up to now is       20.8 secs

     total energy              =      -7.74524157 Ry
     estimated scf accuracy    <       0.00000003 Ry

     iteration #  6     ecut=    60.00 Ry     beta= 0.70
     Davidson diagonalization with overlap
     ethr =  7.90E-10,  avg # of iterations =  1.8

     total cpu time spent up to now is       21.0 secs

     total energy              =      -7.74524158 Ry
     estimated scf accuracy    <          3.7E-10 Ry

     iteration #  7     ecut=    60.00 Ry     beta= 0.70
     Davidson diagonalization with overlap
     ethr =  9.23E-12,  avg # of iterations =  3.6

     total cpu time spent up to now is       21.3 secs

     End of self-consistent calculation

          k = 0.0000 0.0000 0.0000 (  2445 PWs)   bands (ev):

    -4.8102  15.7591

          k =-0.1694 0.1694-0.1694 (  2475 PWs)   bands (ev):

    -4.4314  12.7682

          k =-0.3387 0.3387-0.3387 (  2463 PWs)   bands (ev):

    -3.3017   8.5154

          k =-0.5081 0.5081-0.5081 (  2458 PWs)   bands (ev):

    -1.4553   4.6555

          k = 0.6774-0.6774 0.6774 (  2452 PWs)   bands (ev):

     0.5026   2.0123

          k =-0.0000 0.3387-0.0000 (  2469 PWs)   bands (ev):

    -4.3051  14.4909

          k =-0.1694 0.5081-0.1694 (  2471 PWs)   bands (ev):

    -3.4253  10.1712

          k =-0.3387 0.6774-0.3387 (  2469 PWs)   bands (ev):

    -1.8127   6.1767

          k = 0.8468-0.5081 0.8468 (  2457 PWs)   bands (ev):

     0.3796   2.8581

          k = 0.6774-0.3387 0.6774 (  2445 PWs)   bands (ev):

    -0.3777   3.8441

          k = 0.5081-0.1694 0.5081 (  2463 PWs)   bands (ev):

    -2.4297   7.4658

          k = 0.3387 0.0000 0.3387 (  2459 PWs)   bands (ev):

    -3.8020  11.5084

          k =-0.0000 0.6774-0.0000 (  2477 PWs)   bands (ev):

    -2.7977  11.4623

          k =-0.1694 0.8468-0.1694 (  2454 PWs)   bands (ev):

    -1.4315   8.1965

          k = 1.0162-0.3387 1.0162 (  2454 PWs)   bands (ev):

     0.6088   4.7398

          k = 0.8468-0.1694 0.8468 (  2447 PWs)   bands (ev):

     1.3405   3.8146

          k = 0.6774 0.0000 0.6774 (  2437 PWs)   bands (ev):

    -0.8312   7.1018

          k =-0.0000 1.0162-0.0000 (  2450 PWs)   bands (ev):

    -0.3162   7.2219

          k = 1.1855-0.1694 1.1855 (  2448 PWs)   bands (ev):

     1.4967   5.2353

          k = 1.0162 0.0000 1.0162 (  2440 PWs)   bands (ev):

     3.1409   4.2237

          k = 0.0000-1.3549 0.0000 (  2450 PWs)   bands (ev):

     2.9121   3.2539

          k =-0.3387 0.6774-0.0000 (  2460 PWs)   bands (ev):

    -2.3021   9.2607

          k = 0.8468-0.5081 1.1855 (  2449 PWs)   bands (ev):

    -0.4674   5.5785

          k = 0.6774-0.3387 1.0162 (  2448 PWs)   bands (ev):

     1.4782   2.9665

          k = 1.0162-0.3387 1.3549 (  2435 PWs)   bands (ev):

     0.1599   7.1219

          k = 0.8468-0.1694 1.1855 (  2454 PWs)   bands (ev):

     2.3107   4.6129

          k = 0.6774 0.0000 1.0162 (  2462 PWs)   bands (ev):

     1.5326   5.7140

          k =-0.3387-1.3549 0.0000 (  2444 PWs)   bands (ev):

     3.2645   3.7393

          k =-0.6774-1.3549 0.0000 (  2468 PWs)   bands (ev):

     3.7836   5.1870

     highest occupied level (ev):    15.7591

!    total energy              =      -7.74524158 Ry
     estimated scf accuracy    <          1.7E-12 Ry

     The total energy is the sum of the following terms:
     one-electron contribution =       3.68566282 Ry
     hartree contribution      =       0.09574667 Ry
     xc contribution           =      -2.30342215 Ry
     ewald contribution        =      -9.22322891 Ry

     convergence has been achieved in   7 iterations

     Forces acting on atoms (cartesian axes, Ry/au):

     atom    1 type  1   force =     0.00000000    0.00000000    0.00000000
     The non-local contrib.  to forces
     atom    1 type  1   force =    -0.00000000   -0.00000000    0.00000000
     The ionic contribution  to forces
     atom    1 type  1   force =    -0.00000000   -0.00000000   -0.00000000
     The local contribution  to forces
     atom    1 type  1   force =     0.00000000   -0.00000000   -0.00000000
     The core correction contribution to forces
     atom    1 type  1   force =     0.00000000    0.00000000    0.00000000
     The Hubbard contrib.    to forces
     atom    1 type  1   force =     0.00000000    0.00000000    0.00000000
     The SCF correction term to forces
     atom    1 type  1   force =    -0.00000000   -0.00000000    0.00000000

     Total force =     0.000000     Total SCF correction =     0.000000


     Computing stress (Cartesian axis) and pressure

          total   stress  (Ry/bohr**3)                   (kbar)     P=       74.08
   0.00050360   0.00000000   0.00000000           74.08        0.00        0.00
  -0.00000000   0.00050360   0.00000000           -0.00       74.08        0.00
   0.00000000   0.00000000   0.00050360            0.00        0.00       74.08

     Energy error            =      2.0E-03 Ry
     Gradient error          =      0.0E+00 Ry/Bohr
     Cell gradient error     =      7.4E+01 kbar

     number of scf cycles    =   7
     number of bfgs steps    =   6

     enthalpy           old  =      -7.7432110274 Ry
     enthalpy           new  =      -7.7452415794 Ry

     CASE: enthalpy          _new < enthalpy          _old

     new trust radius        =       0.1509107840 bohr
     new conv_thr            =            1.0E-10 Ry

     new unit-cell volume =    152.91952 a.u.^3 (    22.66033 Ang^3 )
     density =      0.88016 g/cm^3

CELL_PARAMETERS (alat= 10.77625694)
  -0.393861054  -0.000000000   0.393861054
  -0.000000000   0.393861054   0.393861054
  -0.393861054   0.393861054   0.000000000

ATOMIC_POSITIONS (alat)
Si           -0.0000000000        0.0000000000        0.0000000000



     Writing config-only to output data dir ./SCRATCH/silicon.save/
     NEW-OLD atomic charge density approx. for the potential
     extrapolated charge    4.70968, renormalised to    4.00000

     total cpu time spent up to now is       21.9 secs

     Self-consistent Calculation

     iteration #  1     ecut=    60.00 Ry     beta= 0.70
     Davidson diagonalization with overlap
     ethr =  1.00E-06,  avg # of iterations =  8.6

     total cpu time spent up to now is       22.5 secs

     total energy              =      -7.74869603 Ry
     estimated scf accuracy    <       0.00012523 Ry

     iteration #  2     ecut=    60.00 Ry     beta= 0.70
     Davidson diagonalization with overlap
     ethr =  3.13E-06,  avg # of iterations =  4.4

     total cpu time spent up to now is       22.8 secs

     total energy              =      -7.75009052 Ry
     estimated scf accuracy    <       0.00052514 Ry

     iteration #  3     ecut=    60.00 Ry     beta= 0.70
     Davidson diagonalization with overlap
     ethr =  3.13E-06,  avg # of iterations =  1.0

     total cpu time spent up to now is       23.0 secs

     total energy              =      -7.74995280 Ry
     estimated scf accuracy    <       0.00029188 Ry

     iteration #  4     ecut=    60.00 Ry     beta= 0.70
     Davidson diagonalization with overlap
     ethr =  3.13E-06,  avg # of iterations =  2.0

     total cpu time spent up to now is       23.2 secs

     total energy              =      -7.74997542 Ry
     estimated scf accuracy    <       0.00000019 Ry

     iteration #  5     ecut=    60.00 Ry     beta= 0.70
     Davidson diagonalization with overlap
     ethr =  4.84E-09,  avg # of iterations =  3.9

     total cpu time spent up to now is       23.6 secs

     total energy              =      -7.74997613 Ry
     estimated scf accuracy    <       0.00000010 Ry

     iteration #  6     ecut=    60.00 Ry     beta= 0.70
     Davidson diagonalization with overlap
     ethr =  2.59E-09,  avg # of iterations =  2.0

     total cpu time spent up to now is       23.8 secs

     total energy              =      -7.74997613 Ry
     estimated scf accuracy    <       0.00000002 Ry

     iteration #  7     ecut=    60.00 Ry     beta= 0.70
     Davidson diagonalization with overlap
     ethr =  4.10E-10,  avg # of iterations =  1.1

     total cpu time spent up to now is       24.0 secs

     End of self-consistent calculation

          k = 0.0000 0.0000 0.0000 (  2445 PWs)   bands (ev):

    -5.4416  12.0755

          k =-0.1587 0.1587-0.1587 (  2475 PWs)   bands (ev):

    -5.1159   9.8435

          k =-0.3174 0.3174-0.3174 (  2463 PWs)   bands (ev):

    -4.1490   6.2768

          k =-0.4761 0.4761-0.4761 (  2458 PWs)   bands (ev):

    -2.6005   3.0019

          k = 0.6347-0.6347 0.6347 (  2452 PWs)   bands (ev):

    -1.1843   0.9940

          k =-0.0000 0.3174-0.0000 (  2469 PWs)   bands (ev):

    -5.0071  10.8756

          k =-0.1587 0.4761-0.1587 (  2471 PWs)   bands (ev):

    -4.2529   7.6439

          k =-0.3174 0.6347-0.3174 (  2469 PWs)   bands (ev):

    -2.8877   4.2740

          k = 0.7934-0.4761 0.7934 (  2457 PWs)   bands (ev):

    -1.1768   1.5996

          k = 0.6347-0.3174 0.6347 (  2445 PWs)   bands (ev):

    -1.7261   2.3466

          k = 0.4761-0.1587 0.4761 (  2463 PWs)   bands (ev):

    -3.4072   5.3673

          k = 0.3174 0.0000 0.3174 (  2459 PWs)   bands (ev):

    -4.5758   8.6088

          k =-0.0000 0.6347-0.0000 (  2477 PWs)   bands (ev):

    -3.7145   8.2550

          k =-0.1587 0.7934-0.1587 (  2454 PWs)   bands (ev):

    -2.5548   5.7961

          k = 0.9521-0.3174 0.9521 (  2454 PWs)   bands (ev):

    -0.8990   3.0602

          k = 0.7934-0.1587 0.7934 (  2447 PWs)   bands (ev):

    -0.3975   2.4265

          k = 0.6347 0.0000 0.6347 (  2437 PWs)   bands (ev):

    -2.0661   4.8194

          k =-0.0000 0.9521-0.0000 (  2450 PWs)   bands (ev):

    -1.6103   4.8636

          k = 1.1108-0.1587 1.1108 (  2448 PWs)   bands (ev):

    -0.1474   3.2580

          k = 0.9521 0.0000 0.9521 (  2440 PWs)   bands (ev):

     0.7852   2.8546

          k = 0.0000-1.2695 0.0000 (  2450 PWs)   bands (ev):

     0.6922   2.0101

          k =-0.3174 0.6347-0.0000 (  2460 PWs)   bands (ev):

    -3.2954   6.6137

          k = 0.7934-0.4761 1.1108 (  2449 PWs)   bands (ev):

    -1.7665   3.7583

          k = 0.6347-0.3174 0.9521 (  2448 PWs)   bands (ev):

    -0.3845   1.8197

          k = 0.9521-0.3174 1.2695 (  2435 PWs)   bands (ev):

    -1.2282   4.6722

          k = 0.7934-0.1587 1.1108 (  2454 PWs)   bands (ev):

     0.3624   3.0204

          k = 0.6347 0.0000 0.9521 (  2462 PWs)   bands (ev):

    -0.1899   3.7265

          k =-0.3174-1.2695 0.0000 (  2444 PWs)   bands (ev):

     0.9079   2.4329

          k =-0.6347-1.2695 0.0000 (  2468 PWs)   bands (ev):

     1.1761   3.6888

     highest occupied level (ev):    12.0755

!    total energy              =      -7.74997614 Ry
     estimated scf accuracy    <          1.1E-11 Ry

     The total energy is the sum of the following terms:
     one-electron contribution =       2.94120247 Ry
     hartree contribution      =       0.15897228 Ry
     xc contribution           =      -2.20832950 Ry
     ewald contribution        =      -8.64182138 Ry

     convergence has been achieved in   7 iterations

     Forces acting on atoms (cartesian axes, Ry/au):

     atom    1 type  1   force =     0.00000000    0.00000000    0.00000000
     The non-local contrib.  to forces
     atom    1 type  1   force =     0.00000000    0.00000000   -0.00000000
     The ionic contribution  to forces
     atom    1 type  1   force =    -0.00000000   -0.00000000   -0.00000000
     The local contribution  to forces
     atom    1 type  1   force =     0.00000000   -0.00000000    0.00000000
     The core correction contribution to forces
     atom    1 type  1   force =     0.00000000    0.00000000    0.00000000
     The Hubbard contrib.    to forces
     atom    1 type  1   force =     0.00000000    0.00000000    0.00000000
     The SCF correction term to forces
     atom    1 type  1   force =    -0.00000000   -0.00000000    0.00000000

     Total force =     0.000000     Total SCF correction =     0.000000


     Computing stress (Cartesian axis) and pressure

          total   stress  (Ry/bohr**3)                   (kbar)     P=      -11.84
  -0.00008049   0.00000000  -0.00000000          -11.84        0.00       -0.00
   0.00000000  -0.00008049  -0.00000000            0.00      -11.84       -0.00
  -0.00000000  -0.00000000  -0.00008049           -0.00       -0.00      -11.84

     Energy error            =      4.7E-03 Ry
     Gradient error          =      0.0E+00 Ry/Bohr
     Cell gradient error     =      1.2E+01 kbar

     number of scf cycles    =   8
     number of bfgs steps    =   7

     enthalpy           old  =      -7.7452415794 Ry
     enthalpy           new  =      -7.7499761359 Ry

     CASE: enthalpy          _new < enthalpy          _old

     new trust radius        =       0.0240131054 bohr
     new conv_thr            =            1.0E-10 Ry

     new unit-cell volume =    148.50841 a.u.^3 (    22.00668 Ang^3 )
     density =      0.90630 g/cm^3

CELL_PARAMETERS (alat= 10.77625694)
  -0.390036949  -0.000000000   0.390036949
  -0.000000000   0.390036949   0.390036949
  -0.390036949   0.390036949   0.000000000

ATOMIC_POSITIONS (alat)
Si           -0.0000000000        0.0000000000        0.0000000000



     Writing config-only to output data dir ./SCRATCH/silicon.save/
     NEW-OLD atomic charge density approx. for the potential
     extrapolated charge    3.88120, renormalised to    4.00000

     total cpu time spent up to now is       24.6 secs

     Self-consistent Calculation

     iteration #  1     ecut=    60.00 Ry     beta= 0.70
     Davidson diagonalization with overlap
     ethr =  1.00E-06,  avg # of iterations =  5.0

     total cpu time spent up to now is       25.0 secs

     total energy              =      -7.75013241 Ry
     estimated scf accuracy    <       0.00003710 Ry

     iteration #  2     ecut=    60.00 Ry     beta= 0.70
     Davidson diagonalization with overlap
     ethr =  9.28E-07,  avg # of iterations =  2.9

     total cpu time spent up to now is       25.2 secs

     total energy              =      -7.75018537 Ry
     estimated scf accuracy    <       0.00000888 Ry

     iteration #  3     ecut=    60.00 Ry     beta= 0.70
     Davidson diagonalization with overlap
     ethr =  2.22E-07,  avg # of iterations =  1.2

     total cpu time spent up to now is       25.4 secs

     total energy              =      -7.75018507 Ry
     estimated scf accuracy    <       0.00000185 Ry

     iteration #  4     ecut=    60.00 Ry     beta= 0.70
     Davidson diagonalization with overlap
     ethr =  4.62E-08,  avg # of iterations =  1.5

     total cpu time spent up to now is       25.6 secs

     total energy              =      -7.75018527 Ry
     estimated scf accuracy    <          6.2E-09 Ry

     iteration #  5     ecut=    60.00 Ry     beta= 0.70
     Davidson diagonalization with overlap
     ethr =  1.55E-10,  avg # of iterations =  4.4

     total cpu time spent up to now is       26.0 secs

     total energy              =      -7.75018531 Ry
     estimated scf accuracy    <          2.3E-10 Ry

     iteration #  6     ecut=    60.00 Ry     beta= 0.70
     Davidson diagonalization with overlap
     ethr =  5.84E-12,  avg # of iterations =  2.6

     total cpu time spent up to now is       26.2 secs

     total energy              =      -7.75018531 Ry
     estimated scf accuracy    <          4.4E-10 Ry

     iteration #  7     ecut=    60.00 Ry     beta= 0.70
     Davidson diagonalization with overlap
     ethr =  5.84E-12,  avg # of iterations =  2.0

     total cpu time spent up to now is       26.5 secs

     End of self-consistent calculation

          k = 0.0000 0.0000 0.0000 (  2445 PWs)   bands (ev):

    -5.3525  12.5878

          k =-0.1602 0.1602-0.1602 (  2475 PWs)   bands (ev):

    -5.0190  10.2597

          k =-0.3205 0.3205-0.3205 (  2463 PWs)   bands (ev):

    -4.0282   6.5932

          k =-0.4807 0.4807-0.4807 (  2458 PWs)   bands (ev):

    -2.4350   3.2315

          k = 0.6410-0.6410 0.6410 (  2452 PWs)   bands (ev):

    -0.9442   1.1352

          k =-0.0000 0.3205-0.0000 (  2469 PWs)   bands (ev):

    -4.9077  11.3766

          k =-0.1602 0.4807-0.1602 (  2471 PWs)   bands (ev):

    -4.1350   8.0037

          k =-0.3205 0.6410-0.3205 (  2469 PWs)   bands (ev):

    -2.7329   4.5409

          k = 0.8012-0.4807 0.8012 (  2457 PWs)   bands (ev):

    -0.9505   1.7709

          k = 0.6410-0.3205 0.6410 (  2445 PWs)   bands (ev):

    -1.5298   2.5525

          k = 0.4807-0.1602 0.4807 (  2463 PWs)   bands (ev):

    -3.2670   5.6638

          k = 0.3205 0.0000 0.3205 (  2459 PWs)   bands (ev):

    -4.4658   9.0162

          k =-0.0000 0.6410-0.0000 (  2477 PWs)   bands (ev):

    -3.5833   8.6995

          k =-0.1602 0.8012-0.1602 (  2454 PWs)   bands (ev):

    -2.3927   6.1368

          k = 0.9614-0.3205 0.9614 (  2454 PWs)   bands (ev):

    -0.6778   3.2922

          k = 0.8012-0.1602 0.8012 (  2447 PWs)   bands (ev):

    -0.1433   2.6165

          k = 0.6410 0.0000 0.6410 (  2437 PWs)   bands (ev):

    -1.8871   5.1347

          k =-0.0000 0.9614-0.0000 (  2450 PWs)   bands (ev):

    -1.4220   5.1920

          k = 1.1217-0.1602 1.1217 (  2448 PWs)   bands (ev):

     0.0971   3.5249

          k = 0.9614 0.0000 0.9614 (  2440 PWs)   bands (ev):

     1.1189   3.0454

          k = 0.0000-1.2819 0.0000 (  2450 PWs)   bands (ev):

     1.0101   2.1827

          k =-0.3205 0.6410-0.0000 (  2460 PWs)   bands (ev):

    -3.1529   6.9834

          k = 0.8012-0.4807 1.1217 (  2449 PWs)   bands (ev):

    -1.5776   4.0130

          k = 0.6410-0.3205 0.9614 (  2448 PWs)   bands (ev):

    -0.1176   1.9795

          k = 0.9614-0.3205 1.2819 (  2435 PWs)   bands (ev):

    -1.0254   5.0056

          k = 0.8012-0.1602 1.1217 (  2454 PWs)   bands (ev):

     0.6504   3.2365

          k = 0.6410 0.0000 0.9614 (  2462 PWs)   bands (ev):

     0.0642   3.9938

          k =-0.3205-1.2819 0.0000 (  2444 PWs)   bands (ev):

     1.2437   2.6146

          k =-0.6410-1.2819 0.0000 (  2468 PWs)   bands (ev):

     1.5399   3.8984

     highest occupied level (ev):    12.5878

!    total energy              =      -7.75018531 Ry
     estimated scf accuracy    <          4.8E-12 Ry

     The total energy is the sum of the following terms:
     one-electron contribution =       3.04961843 Ry
     hartree contribution      =       0.14837498 Ry
     xc contribution           =      -2.22162886 Ry
     ewald contribution        =      -8.72654986 Ry

     convergence has been achieved in   7 iterations

     Forces acting on atoms (cartesian axes, Ry/au):

     atom    1 type  1   force =     0.00000000    0.00000000    0.00000000
     The non-local contrib.  to forces
     atom    1 type  1   force =    -0.00000000    0.00000000   -0.00000000
     The ionic contribution  to forces
     atom    1 type  1   force =    -0.00000000   -0.00000000   -0.00000000
     The local contribution  to forces
     atom    1 type  1   force =     0.00000000   -0.00000000   -0.00000000
     The core correction contribution to forces
     atom    1 type  1   force =     0.00000000    0.00000000    0.00000000
     The Hubbard contrib.    to forces
     atom    1 type  1   force =     0.00000000    0.00000000    0.00000000
     The SCF correction term to forces
     atom    1 type  1   force =    -0.00000000   -0.00000000    0.00000000

     Total force =     0.000000     Total SCF correction =     0.000000


     Computing stress (Cartesian axis) and pressure

          total   stress  (Ry/bohr**3)                   (kbar)     P=       -1.91
  -0.00001300   0.00000000  -0.00000000           -1.91        0.00       -0.00
  -0.00000000  -0.00001300  -0.00000000           -0.00       -1.91       -0.00
  -0.00000000  -0.00000000  -0.00001300           -0.00       -0.00       -1.91

     Energy error            =      2.1E-04 Ry
     Gradient error          =      0.0E+00 Ry/Bohr
     Cell gradient error     =      1.9E+00 kbar

     number of scf cycles    =   9
     number of bfgs steps    =   8

     enthalpy           old  =      -7.7499761359 Ry
     enthalpy           new  =      -7.7501853106 Ry

     CASE: enthalpy          _new < enthalpy          _old

     new trust radius        =       0.0044982554 bohr
     new conv_thr            =            1.0E-10 Ry

     new unit-cell volume =    147.68767 a.u.^3 (    21.88505 Ang^3 )
     density =      0.91134 g/cm^3

CELL_PARAMETERS (alat= 10.77625694)
  -0.389317095  -0.000000000   0.389317095
  -0.000000000   0.389317095   0.389317095
  -0.389317095   0.389317095   0.000000000

ATOMIC_POSITIONS (alat)
Si           -0.0000000000        0.0000000000        0.0000000000



     Writing config-only to output data dir ./SCRATCH/silicon.save/
     NEW-OLD atomic charge density approx. for the potential
     extrapolated charge    3.97777, renormalised to    4.00000

     total cpu time spent up to now is       27.0 secs

     Self-consistent Calculation

     iteration #  1     ecut=    60.00 Ry     beta= 0.70
     Davidson diagonalization with overlap
     ethr =  1.00E-06,  avg # of iterations =  2.0

     Threshold (ethr) on eigenvalues was too large:
     Diagonalizing with lowered threshold

     Davidson diagonalization with overlap
     ethr =  3.68E-08,  avg # of iterations =  3.0

     total cpu time spent up to now is       27.5 secs

     total energy              =      -7.75018871 Ry
     estimated scf accuracy    <       0.00000103 Ry

     iteration #  2     ecut=    60.00 Ry     beta= 0.70
     Davidson diagonalization with overlap
     ethr =  2.58E-08,  avg # of iterations =  2.9

     total cpu time spent up to now is       27.8 secs

     total energy              =      -7.75019047 Ry
     estimated scf accuracy    <       0.00000033 Ry

     iteration #  3     ecut=    60.00 Ry     beta= 0.70
     Davidson diagonalization with overlap
     ethr =  8.23E-09,  avg # of iterations =  1.1

     total cpu time spent up to now is       28.0 secs

     total energy              =      -7.75019046 Ry
     estimated scf accuracy    <       0.00000008 Ry

     iteration #  4     ecut=    60.00 Ry     beta= 0.70
     Davidson diagonalization with overlap
     ethr =  1.90E-09,  avg # of iterations =  1.4

     total cpu time spent up to now is       28.2 secs

     total energy              =      -7.75019046 Ry
     estimated scf accuracy    <          1.4E-10 Ry

     iteration #  5     ecut=    60.00 Ry     beta= 0.70
     Davidson diagonalization with overlap
     ethr =  3.38E-12,  avg # of iterations =  4.8

     total cpu time spent up to now is       28.6 secs

     End of self-consistent calculation

          k = 0.0000 0.0000 0.0000 (  2445 PWs)   bands (ev):

    -5.3355  12.6862

          k =-0.1605 0.1605-0.1605 (  2475 PWs)   bands (ev):

    -5.0005  10.3393

          k =-0.3211 0.3211-0.3211 (  2463 PWs)   bands (ev):

    -4.0051   6.6538

          k =-0.4816 0.4816-0.4816 (  2458 PWs)   bands (ev):

    -2.4035   3.2756

          k = 0.6422-0.6422 0.6422 (  2452 PWs)   bands (ev):

    -0.8983   1.1624

          k =-0.0000 0.3211-0.0000 (  2469 PWs)   bands (ev):

    -4.8887  11.4729

          k =-0.1605 0.4816-0.1605 (  2471 PWs)   bands (ev):

    -4.1125   8.0725

          k =-0.3211 0.6422-0.3211 (  2469 PWs)   bands (ev):

    -2.7033   4.5921

          k = 0.8027-0.4816 0.8027 (  2457 PWs)   bands (ev):

    -0.9074   1.8039

          k = 0.6422-0.3211 0.6422 (  2445 PWs)   bands (ev):

    -1.4924   2.5922

          k = 0.4816-0.1605 0.4816 (  2463 PWs)   bands (ev):

    -3.2402   5.7207

          k = 0.3211 0.0000 0.3211 (  2459 PWs)   bands (ev):

    -4.4448   9.0944

          k =-0.0000 0.6422-0.0000 (  2477 PWs)   bands (ev):

    -3.5583   8.7850

          k =-0.1605 0.8027-0.1605 (  2454 PWs)   bands (ev):

    -2.3618   6.2021

          k = 0.9632-0.3211 0.9632 (  2454 PWs)   bands (ev):

    -0.6358   3.3369

          k = 0.8027-0.1605 0.8027 (  2447 PWs)   bands (ev):

    -0.0949   2.6532

          k = 0.6422 0.0000 0.6422 (  2437 PWs)   bands (ev):

    -1.8530   5.1954

          k =-0.0000 0.9632-0.0000 (  2450 PWs)   bands (ev):

    -1.3862   5.2552

          k = 1.1238-0.1605 1.1238 (  2448 PWs)   bands (ev):

     0.1435   3.5766

          k = 0.9632 0.0000 0.9632 (  2440 PWs)   bands (ev):

     1.1828   3.0821

          k = 0.0000-1.2843 0.0000 (  2450 PWs)   bands (ev):

     1.0709   2.2159

          k =-0.3211 0.6422-0.0000 (  2460 PWs)   bands (ev):

    -3.1257   7.0544

          k = 0.8027-0.4816 1.1238 (  2449 PWs)   bands (ev):

    -1.5417   4.0620

          k = 0.6422-0.3211 0.9632 (  2448 PWs)   bands (ev):

    -0.0667   2.0102

          k = 0.9632-0.3211 1.2843 (  2435 PWs)   bands (ev):

    -0.9868   5.0700

          k = 0.8027-0.1605 1.1238 (  2454 PWs)   bands (ev):

     0.7052   3.2783

          k = 0.6422 0.0000 0.9632 (  2462 PWs)   bands (ev):

     0.1125   4.0456

          k =-0.3211-1.2843 0.0000 (  2444 PWs)   bands (ev):

     1.3080   2.6496

          k =-0.6422-1.2843 0.0000 (  2468 PWs)   bands (ev):

     1.6098   3.9387

     highest occupied level (ev):    12.6862

!    total energy              =      -7.75019047 Ry
     estimated scf accuracy    <          3.4E-11 Ry

     The total energy is the sum of the following terms:
     one-electron contribution =       3.07026567 Ry
     hartree contribution      =       0.14641297 Ry
     xc contribution           =      -2.22418370 Ry
     ewald contribution        =      -8.74268540 Ry

     convergence has been achieved in   5 iterations

     Forces acting on atoms (cartesian axes, Ry/au):

     atom    1 type  1   force =     0.00000000    0.00000000    0.00000000
     The non-local contrib.  to forces
     atom    1 type  1   force =     0.00000000    0.00000000   -0.00000000
     The ionic contribution  to forces
     atom    1 type  1   force =    -0.00000000   -0.00000000   -0.00000000
     The local contribution  to forces
     atom    1 type  1   force =     0.00000000   -0.00000000   -0.00000000
     The core correction contribution to forces
     atom    1 type  1   force =     0.00000000    0.00000000    0.00000000
     The Hubbard contrib.    to forces
     atom    1 type  1   force =     0.00000000    0.00000000    0.00000000
     The SCF correction term to forces
     atom    1 type  1   force =    -0.00000000   -0.00000000    0.00000000

     Total force =     0.000000     Total SCF correction =     0.000000


     Computing stress (Cartesian axis) and pressure

          total   stress  (Ry/bohr**3)                   (kbar)     P=        0.07
   0.00000051   0.00000000   0.00000000            0.07        0.00        0.00
   0.00000000   0.00000051   0.00000000            0.00        0.07        0.00
   0.00000000   0.00000000   0.00000051            0.00        0.00        0.07

     Energy error            =      5.2E-06 Ry
     Gradient error          =      0.0E+00 Ry/Bohr
     Cell gradient error     =      7.5E-02 kbar

     bfgs converged in  10 scf cycles and   9 bfgs steps
     (criteria: energy <  1.0E-05 Ry, force <  1.0E-04 Ry/Bohr, cell <  5.0E-01 kbar)

     End of BFGS Geometry Optimization

     Final enthalpy           =      -7.7501904652 Ry

     File ./SCRATCH/silicon.bfgs deleted, as requested
Begin final coordinates
     new unit-cell volume =    147.68767 a.u.^3 (    21.88505 Ang^3 )
     density =      0.91134 g/cm^3

CELL_PARAMETERS (alat= 10.77625694)
  -0.389317095  -0.000000000   0.389317095
  -0.000000000   0.389317095   0.389317095
  -0.389317095   0.389317095   0.000000000

ATOMIC_POSITIONS (alat)
Si           -0.0000000000        0.0000000000        0.0000000000
End final coordinates



     Writing config-only to output data dir ./SCRATCH/silicon.save/

     Final scf calculation at the relaxed structure.
     The G-vectors are recalculated for the final unit cell
     Results may differ from those at the preceding step.

     G-vector sticks info
     --------------------
     sticks:   dense  smooth     PW     G-vecs:    dense   smooth      PW
     Sum         583     583    187                 9377     9377    1639

     Using Slab Decomposition



     bravais-lattice index     =            2
     lattice parameter (alat)  =      10.7763  a.u.
     unit-cell volume          =     147.6877 (a.u.)^3
     number of atoms/cell      =            1
     number of atomic types    =            1
     number of electrons       =         4.00
     number of Kohn-Sham states=            2
     kinetic-energy cutoff     =      60.0000  Ry
     charge density cutoff     =     240.0000  Ry
     scf convergence threshold =      1.0E-10
     mixing beta               =       0.7000
     number of iterations used =            8  plain     mixing
     press convergence thresh. =      5.0E-01
     Exchange-correlation=  SLA  PZ   NOGX NOGC
                           (   1   1   0   0   0   0   0)

     celldm(1)=  10.776257  celldm(2)=   0.000000  celldm(3)=   0.000000
     celldm(4)=   0.000000  celldm(5)=   0.000000  celldm(6)=   0.000000

     crystal axes: (cart. coord. in units of alat)
               a(1) = (  -0.389317  -0.000000   0.389317 )  
               a(2) = (  -0.000000   0.389317   0.389317 )  
               a(3) = (  -0.389317   0.389317   0.000000 )  

     reciprocal axes: (cart. coord. in units 2 pi/alat)
               b(1) = ( -1.284300 -1.284300  1.284300 )  
               b(2) = (  1.284300  1.284300  1.284300 )  
               b(3) = ( -1.284300  1.284300 -1.284300 )  


     PseudoPot. # 1 for Si read from file:
     /home/paolo/project_labqsm/pseudopotentials/Si.pz-vbc.UPF
     MD5 check sum: dc3b11d017da532b29132e08c0a6883c
     Pseudo is Norm-conserving, Zval =  4.0
     Generated by new atomic code, or converted to UPF format
     Using radial grid of  431 points,  2 beta functions with: 
                l(1) =   0
                l(2) =   1

     atomic species   valence    mass     pseudopotential
        Si             4.00    12.01100     Si( 1.00)

     48 Sym. Ops., with inversion, found



   Cartesian axes

     site n.     atom                  positions (alat units)
         1           Si  tau(   1) = (  -0.0000000   0.0000000   0.0000000  )

     number of k points=    29
                       cart. coord. in units 2pi/alat
        k(    1) = (   0.0000000   0.0000000   0.0000000), wk =   0.0039062
        k(    2) = (  -0.1605375   0.1605375  -0.1605375), wk =   0.0312500
        k(    3) = (  -0.3210750   0.3210750  -0.3210750), wk =   0.0312500
        k(    4) = (  -0.4816126   0.4816126  -0.4816126), wk =   0.0312500
        k(    5) = (   0.6421501  -0.6421501   0.6421501), wk =   0.0156250
        k(    6) = (  -0.0000000   0.3210750  -0.0000000), wk =   0.0234375
        k(    7) = (  -0.1605375   0.4816126  -0.1605375), wk =   0.0937500
        k(    8) = (  -0.3210750   0.6421501  -0.3210750), wk =   0.0937500
        k(    9) = (   0.8026876  -0.4816126   0.8026876), wk =   0.0937500
        k(   10) = (   0.6421501  -0.3210750   0.6421501), wk =   0.0937500
        k(   11) = (   0.4816126  -0.1605375   0.4816126), wk =   0.0937500
        k(   12) = (   0.3210750   0.0000000   0.3210750), wk =   0.0468750
        k(   13) = (  -0.0000000   0.6421501  -0.0000000), wk =   0.0234375
        k(   14) = (  -0.1605375   0.8026876  -0.1605375), wk =   0.0937500
        k(   15) = (   0.9632251  -0.3210750   0.9632251), wk =   0.0937500
        k(   16) = (   0.8026876  -0.1605375   0.8026876), wk =   0.0937500
        k(   17) = (   0.6421501   0.0000000   0.6421501), wk =   0.0468750
        k(   18) = (  -0.0000000   0.9632251  -0.0000000), wk =   0.0234375
        k(   19) = (   1.1237626  -0.1605375   1.1237626), wk =   0.0937500
        k(   20) = (   0.9632251   0.0000000   0.9632251), wk =   0.0468750
        k(   21) = (   0.0000000  -1.2843001   0.0000000), wk =   0.0117188
        k(   22) = (  -0.3210750   0.6421501  -0.0000000), wk =   0.0937500
        k(   23) = (   0.8026876  -0.4816126   1.1237626), wk =   0.1875000
        k(   24) = (   0.6421501  -0.3210750   0.9632251), wk =   0.0937500
        k(   25) = (   0.9632251  -0.3210750   1.2843001), wk =   0.0937500
        k(   26) = (   0.8026876  -0.1605375   1.1237626), wk =   0.1875000
        k(   27) = (   0.6421501   0.0000000   0.9632251), wk =   0.0937500
        k(   28) = (  -0.3210750  -1.2843001   0.0000000), wk =   0.0468750
        k(   29) = (  -0.6421501  -1.2843001   0.0000000), wk =   0.0234375

     Dense  grid:     9377 G-vectors     FFT dimensions: (  30,  30,  30)

     Estimated max dynamical RAM per process >       7.39 MB

     Initial potential from superposition of free atoms

     starting charge       3.9995, renormalised to       4.0000
     Starting wfcs are    4 randomized atomic wfcs

     total cpu time spent up to now is       29.1 secs

     Self-consistent Calculation

     iteration #  1     ecut=    60.00 Ry     beta= 0.70
     Davidson diagonalization with overlap
     c_bands:  1 eigenvalues not converged
     ethr =  1.00E-06,  avg # of iterations =  9.4

     total cpu time spent up to now is       29.4 secs

     total energy              =      -7.75047973 Ry
     estimated scf accuracy    <       0.00036354 Ry

     iteration #  2     ecut=    60.00 Ry     beta= 0.70
     Davidson diagonalization with overlap
     ethr =  9.09E-06,  avg # of iterations =  1.4

     total cpu time spent up to now is       29.5 secs

     total energy              =      -7.75052388 Ry
     estimated scf accuracy    <       0.00001372 Ry

     iteration #  3     ecut=    60.00 Ry     beta= 0.70
     Davidson diagonalization with overlap
     c_bands:  1 eigenvalues not converged
     ethr =  3.43E-07,  avg # of iterations =  2.7

     total cpu time spent up to now is       29.6 secs

     total energy              =      -7.75053045 Ry
     estimated scf accuracy    <       0.00000012 Ry

     iteration #  4     ecut=    60.00 Ry     beta= 0.70
     Davidson diagonalization with overlap
     c_bands:  1 eigenvalues not converged
     ethr =  3.08E-09,  avg # of iterations =  5.3

     total cpu time spent up to now is       29.8 secs

     total energy              =      -7.75053140 Ry
     estimated scf accuracy    <          6.5E-10 Ry

     iteration #  5     ecut=    60.00 Ry     beta= 0.70
     Davidson diagonalization with overlap
     c_bands:  1 eigenvalues not converged
     ethr =  1.61E-11,  avg # of iterations =  5.5

     total cpu time spent up to now is       29.9 secs

     End of self-consistent calculation

          k = 0.0000 0.0000 0.0000 (  1211 PWs)   bands (ev):

    -5.3367  12.6835

          k =-0.1605 0.1605-0.1605 (  1173 PWs)   bands (ev):

    -5.0017  10.3373

          k =-0.3211 0.3211-0.3211 (  1164 PWs)   bands (ev):

    -4.0064   6.6523

          k =-0.4816 0.4816-0.4816 (  1155 PWs)   bands (ev):

    -2.4050   3.2744

          k = 0.6422-0.6422 0.6422 (  1170 PWs)   bands (ev):

    -0.9003   1.1618

          k =-0.0000 0.3211-0.0000 (  1163 PWs)   bands (ev):

    -4.8899  11.2689

          k =-0.1605 0.4816-0.1605 (  1163 PWs)   bands (ev):

    -4.1138   8.0707

          k =-0.3211 0.6422-0.3211 (  1151 PWs)   bands (ev):

    -2.7048   4.5907

          k = 0.8027-0.4816 0.8027 (  1161 PWs)   bands (ev):

    -0.9092   1.8031

          k = 0.6422-0.3211 0.6422 (  1151 PWs)   bands (ev):

    -1.4941   2.5912

          k = 0.4816-0.1605 0.4816 (  1159 PWs)   bands (ev):

    -3.2416   5.7192

          k = 0.3211 0.0000 0.3211 (  1159 PWs)   bands (ev):

    -4.4461   9.0923

          k =-0.0000 0.6422-0.0000 (  1174 PWs)   bands (ev):

    -3.5597   8.7826

          k =-0.1605 0.8027-0.1605 (  1159 PWs)   bands (ev):

    -2.3633   6.2002

          k = 0.9632-0.3211 0.9632 (  1156 PWs)   bands (ev):

    -0.6375   3.3356

          k = 0.8027-0.1605 0.8027 (  1154 PWs)   bands (ev):

    -0.0968   2.6523

          k = 0.6422 0.0000 0.6422 (  1159 PWs)   bands (ev):

    -1.8545   5.1937

          k =-0.0000 0.9632-0.0000 (  1150 PWs)   bands (ev):

    -1.3877   5.2533

          k = 1.1238-0.1605 1.1238 (  1154 PWs)   bands (ev):

     0.1417   3.5750

          k = 0.9632 0.0000 0.9632 (  1144 PWs)   bands (ev):

     1.1803   3.0811

          k = 0.0000-1.2843 0.0000 (  1162 PWs)   bands (ev):

     1.0686   2.2150

          k =-0.3211 0.6422-0.0000 (  1165 PWs)   bands (ev):

    -3.1271   7.0524

          k = 0.8027-0.4816 1.1238 (  1151 PWs)   bands (ev):

    -1.5433   4.0606

          k = 0.6422-0.3211 0.9632 (  1164 PWs)   bands (ev):

    -0.0688   2.0095

          k = 0.9632-0.3211 1.2843 (  1171 PWs)   bands (ev):

    -0.9884   5.0681

          k = 0.8027-0.1605 1.1238 (  1160 PWs)   bands (ev):

     0.7030   3.2772

          k = 0.6422 0.0000 0.9632 (  1162 PWs)   bands (ev):

     0.1106   4.0442

          k =-0.3211-1.2843 0.0000 (  1156 PWs)   bands (ev):

     1.3055   2.6486

          k =-0.6422-1.2843 0.0000 (  1144 PWs)   bands (ev):

     1.6071   3.9377

     highest occupied level (ev):    12.6835

!    total energy              =      -7.75053141 Ry
     estimated scf accuracy    <          8.1E-11 Ry

     The total energy is the sum of the following terms:
     one-electron contribution =       3.07020302 Ry
     hartree contribution      =       0.14585336 Ry
     xc contribution           =      -2.22390238 Ry
     ewald contribution        =      -8.74268540 Ry

     convergence has been achieved in   5 iterations

     Forces acting on atoms (cartesian axes, Ry/au):

     atom    1 type  1   force =     0.00000000    0.00000000    0.00000000
     The non-local contrib.  to forces
     atom    1 type  1   force =     0.00000000    0.00000000    0.00000000
     The ionic contribution  to forces
     atom    1 type  1   force =    -0.00000000   -0.00000000   -0.00000000
     The local contribution  to forces
     atom    1 type  1   force =    -0.00000000    0.00000000    0.00000000
     The core correction contribution to forces
     atom    1 type  1   force =     0.00000000    0.00000000    0.00000000
     The Hubbard contrib.    to forces
     atom    1 type  1   force =     0.00000000    0.00000000    0.00000000
     The SCF correction term to forces
     atom    1 type  1   force =    -0.00000000    0.00000000   -0.00000000

     Total force =     0.000000     Total SCF correction =     0.000000


     Computing stress (Cartesian axis) and pressure

          total   stress  (Ry/bohr**3)                   (kbar)     P=       -4.07
  -0.00002769  -0.00000000  -0.00000000           -4.07       -0.00       -0.00
   0.00000000  -0.00002769  -0.00000000            0.00       -4.07       -0.00
  -0.00000000  -0.00000000  -0.00002769           -0.00       -0.00       -4.07


     Writing all to output data dir ./SCRATCH/silicon.save/

     init_run     :      0.44s CPU      0.45s WALL (       2 calls)
     electrons    :     23.08s CPU     23.89s WALL (      11 calls)
     update_pot   :      1.62s CPU      1.62s WALL (       9 calls)
     forces       :      0.91s CPU      0.93s WALL (      11 calls)
     stress       :      2.50s CPU      3.12s WALL (      11 calls)

     Called by init_run:
     wfcinit      :      0.22s CPU      0.21s WALL (       2 calls)
     potinit      :      0.09s CPU      0.11s WALL (       2 calls)
     hinit0       :      0.11s CPU      0.11s WALL (       2 calls)

     Called by electrons:
     c_bands      :     19.33s CPU     19.99s WALL (      91 calls)
     sum_band     :      3.25s CPU      3.32s WALL (      91 calls)
     v_of_rho     :      0.33s CPU      0.30s WALL (     100 calls)
     mix_rho      :      0.19s CPU      0.24s WALL (      91 calls)

     Called by c_bands:
     init_us_2    :      1.09s CPU      1.04s WALL (    5974 calls)
     init_us_2:cp :      1.09s CPU      1.01s WALL (    5974 calls)
     cegterg      :     18.56s CPU     19.03s WALL (    2639 calls)

     Called by *egterg:
     cdiaghg      :      0.09s CPU      0.08s WALL (    9654 calls)
     h_psi        :     17.70s CPU     18.07s WALL (   10031 calls)
     g_psi        :      0.11s CPU      0.10s WALL (    7334 calls)

     Called by h_psi:
     h_psi:calbec :      0.22s CPU      0.24s WALL (   10031 calls)
     vloc_psi     :     17.28s CPU     17.51s WALL (   10031 calls)
     add_vuspsi   :      0.19s CPU      0.17s WALL (   10031 calls)

     General routines
     calbec       :      0.25s CPU      0.23s WALL (   11626 calls)
     fft          :      0.25s CPU      0.27s WALL (     355 calls)
     ffts         :      0.09s CPU      0.07s WALL (      91 calls)
     fftw         :     18.14s CPU     18.32s WALL (   41500 calls)


     PWSCF        :     28.61s CPU     30.12s WALL


   This run was terminated on:  11:15:50  12May2024            

=------------------------------------------------------------------------------=
   JOB DONE.
=------------------------------------------------------------------------------=
