
     Program PWSCF v.7.2 starts on  9Jun2024 at 11:31:10 

     This program is part of the open-source Quantum ESPRESSO suite
     for quantum simulation of materials; please cite
         "P. Giannozzi et al., J. Phys.:Condens. Matter 21 395502 (2009);
         "P. Giannozzi et al., J. Phys.:Condens. Matter 29 465901 (2017);
         "P. Giannozzi et al., J. Chem. Phys. 152 154105 (2020);
          URL http://www.quantum-espresso.org", 
     in publications or presentations arising from this work. More details at
     http://www.quantum-espresso.org/quote

     Serial version
     8949 MiB available memory on the printing compute node when the environment starts

     Waiting for input...
     Reading input from standard input

     Current dimensions of program PWSCF are:
     Max number of different atomic species (ntypx) = 10
     Max number of k-points (npk) =  40000
     Max angular momentum in pseudopotentials (lmaxx) =  4


     G-vector sticks info
     --------------------
     sticks:   dense  smooth     PW     G-vecs:    dense   smooth      PW
     Sum         583     583    187                 9257     9257    1639

     Using Slab Decomposition



     bravais-lattice index     =            2
     lattice parameter (alat)  =      10.2631  a.u.
     unit-cell volume          =     270.2564 (a.u.)^3
     number of atoms/cell      =            2
     number of atomic types    =            1
     number of electrons       =         8.00
     number of Kohn-Sham states=            4
     kinetic-energy cutoff     =      40.0000  Ry
     charge density cutoff     =     160.0000  Ry
     scf convergence threshold =      1.0E-08
     mixing beta               =       0.7000
     number of iterations used =            8  plain     mixing
     Exchange-correlation= PBE
                           (   1   4   3   4   0   0   0)

     celldm(1)=  10.263102  celldm(2)=   0.000000  celldm(3)=   0.000000
     celldm(4)=   0.000000  celldm(5)=   0.000000  celldm(6)=   0.000000

     crystal axes: (cart. coord. in units of alat)
               a(1) = (  -0.500000   0.000000   0.500000 )  
               a(2) = (   0.000000   0.500000   0.500000 )  
               a(3) = (  -0.500000   0.500000   0.000000 )  

     reciprocal axes: (cart. coord. in units 2 pi/alat)
               b(1) = ( -1.000000 -1.000000  1.000000 )  
               b(2) = (  1.000000  1.000000  1.000000 )  
               b(3) = ( -1.000000  1.000000 -1.000000 )  


     PseudoPot. # 1 for Si read from file:
     /home/paolo/project_labqsm/pseudopotentials/Si_ONCV_PBE-1.2.upf
     MD5 check sum: 7f029a58b69e3aa87b46a36c608bf45e
     Pseudo is Norm-conserving, Zval =  4.0
     Generated using ONCVPSP code by D. R. Hamann
     Using radial grid of  602 points,  4 beta functions with: 
                l(1) =   0
                l(2) =   0
                l(3) =   1
                l(4) =   1

     atomic species   valence    mass     pseudopotential
        Si             4.00    28.08500     Si( 1.00)

     48 Sym. Ops., with inversion, found (24 have fractional translation)



   Cartesian axes

     site n.     atom                  positions (alat units)
         1           Si  tau(   1) = (   0.0000000   0.0000000   0.0000000  )
         2           Si  tau(   2) = (   0.2500000   0.2500000   0.2500000  )

     number of k points=    16
                       cart. coord. in units 2pi/alat
        k(    1) = (   0.0000000   0.0000000   0.0000000), wk =   0.0092593
        k(    2) = (  -0.1666667   0.1666667  -0.1666667), wk =   0.0740741
        k(    3) = (  -0.3333333   0.3333333  -0.3333333), wk =   0.0740741
        k(    4) = (   0.5000000  -0.5000000   0.5000000), wk =   0.0370370
        k(    5) = (   0.0000000   0.3333333   0.0000000), wk =   0.0555556
        k(    6) = (  -0.1666667   0.5000000  -0.1666667), wk =   0.2222222
        k(    7) = (   0.6666667  -0.3333333   0.6666667), wk =   0.2222222
        k(    8) = (   0.5000000  -0.1666667   0.5000000), wk =   0.2222222
        k(    9) = (   0.3333333   0.0000000   0.3333333), wk =   0.1111111
        k(   10) = (   0.0000000   0.6666667   0.0000000), wk =   0.0555556
        k(   11) = (   0.8333333  -0.1666667   0.8333333), wk =   0.2222222
        k(   12) = (   0.6666667  -0.0000000   0.6666667), wk =   0.1111111
        k(   13) = (   0.0000000  -1.0000000   0.0000000), wk =   0.0277778
        k(   14) = (   0.6666667  -0.3333333   1.0000000), wk =   0.2222222
        k(   15) = (   0.5000000  -0.1666667   0.8333333), wk =   0.2222222
        k(   16) = (  -0.3333333  -1.0000000   0.0000000), wk =   0.1111111

     Dense  grid:     9257 G-vectors     FFT dimensions: (  32,  32,  32)

     Estimated max dynamical RAM per process >       8.16 MB

     Initial potential from superposition of free atoms

     starting charge       7.9075, renormalised to       8.0000
     Starting wfcs are random

     total cpu time spent up to now is        0.1 secs

     Self-consistent Calculation

     iteration #  1     ecut=    40.00 Ry     beta= 0.70
     Davidson diagonalization with overlap
     ethr =  1.00E-02,  avg # of iterations =  8.5

     Threshold (ethr) on eigenvalues was too large:
     Diagonalizing with lowered threshold

     Davidson diagonalization with overlap
     ethr =  6.21E-04,  avg # of iterations =  2.8

     total cpu time spent up to now is        0.5 secs

     total energy              =     -15.76045267 Ry
     estimated scf accuracy    <       0.05317011 Ry

     iteration #  2     ecut=    40.00 Ry     beta= 0.70
     Davidson diagonalization with overlap
     ethr =  6.65E-04,  avg # of iterations =  1.0

     total cpu time spent up to now is        0.6 secs

     total energy              =     -15.76304065 Ry
     estimated scf accuracy    <       0.00243935 Ry

     iteration #  3     ecut=    40.00 Ry     beta= 0.70
     Davidson diagonalization with overlap
     ethr =  3.05E-05,  avg # of iterations =  3.4

     total cpu time spent up to now is        0.8 secs

     total energy              =     -15.76393562 Ry
     estimated scf accuracy    <       0.00004843 Ry

     iteration #  4     ecut=    40.00 Ry     beta= 0.70
     Davidson diagonalization with overlap
     ethr =  6.05E-07,  avg # of iterations =  4.1

     total cpu time spent up to now is        0.9 secs

     total energy              =     -15.76397660 Ry
     estimated scf accuracy    <       0.00000053 Ry

     iteration #  5     ecut=    40.00 Ry     beta= 0.70
     Davidson diagonalization with overlap
     ethr =  6.60E-09,  avg # of iterations =  5.9

     total cpu time spent up to now is        1.2 secs

     total energy              =     -15.76397794 Ry
     estimated scf accuracy    <       0.00000002 Ry

     iteration #  6     ecut=    40.00 Ry     beta= 0.70
     Davidson diagonalization with overlap
     ethr =  2.26E-10,  avg # of iterations =  3.4

     total cpu time spent up to now is        1.3 secs

     End of self-consistent calculation

          k = 0.0000 0.0000 0.0000 (  1139 PWs)   bands (ev):

    -5.7303   6.2301   6.2301   6.2301

          k =-0.1667 0.1667-0.1667 (  1167 PWs)   bands (ev):

    -5.3694   3.8483   5.7818   5.7818

          k =-0.3333 0.3333-0.3333 (  1149 PWs)   bands (ev):

    -4.3544   0.8964   5.2347   5.2347

          k = 0.5000-0.5000 0.5000 (  1158 PWs)   bands (ev):

    -3.4007  -0.7381   5.0376   5.0376

          k = 0.0000 0.3333 0.0000 (  1162 PWs)   bands (ev):

    -5.2465   4.1878   5.0410   5.0410

          k =-0.1667 0.5000-0.1667 (  1151 PWs)   bands (ev):

    -4.4317   1.7929   4.2397   4.4899

          k = 0.6667-0.3333 0.6667 (  1153 PWs)   bands (ev):

    -3.2412  -0.3748   3.4559   4.4605

          k = 0.5000-0.1667 0.5000 (  1156 PWs)   bands (ev):

    -3.6258   0.2240   3.1858   4.9388

          k = 0.3333 0.0000 0.3333 (  1147 PWs)   bands (ev):

    -4.7815   2.5115   3.8212   5.6690

          k = 0.0000 0.6667 0.0000 (  1150 PWs)   bands (ev):

    -3.8271   1.2168   3.8199   3.8199

          k = 0.8333-0.1667 0.8333 (  1149 PWs)   bands (ev):

    -2.6638  -0.3368   2.6036   3.6840

          k = 0.6667-0.0000 0.6667 (  1141 PWs)   bands (ev):

    -2.4681  -0.5414   1.8223   4.1257

          k = 0.0000-1.0000 0.0000 (  1162 PWs)   bands (ev):

    -1.5878  -1.5878   3.3864   3.3864

          k = 0.6667-0.3333 1.0000 (  1151 PWs)   bands (ev):

    -3.4422   0.5847   2.6654   3.9407

          k = 0.5000-0.1667 0.8333 (  1152 PWs)   bands (ev):

    -2.4581  -0.6139   2.2248   3.4743

          k =-0.3333-1.0000 0.0000 (  1154 PWs)   bands (ev):

    -1.4682  -1.4682   2.5910   2.5910

     highest occupied level (ev):     6.2301

!    total energy              =     -15.76397794 Ry
     estimated scf accuracy    <          3.5E-10 Ry

     The total energy is the sum of the following terms:
     one-electron contribution =       4.74329590 Ry
     hartree contribution      =       1.10580076 Ry
     xc contribution           =      -4.81722278 Ry
     ewald contribution        =     -16.79585182 Ry

     convergence has been achieved in   6 iterations

     Writing all to output data dir ./SCRATCH/silicon.save/

     init_run     :      0.05s CPU      0.08s WALL (       1 calls)
     electrons    :      1.14s CPU      1.22s WALL (       1 calls)

     Called by init_run:
     wfcinit      :      0.03s CPU      0.04s WALL (       1 calls)
     potinit      :      0.00s CPU      0.02s WALL (       1 calls)
     hinit0       :      0.02s CPU      0.01s WALL (       1 calls)

     Called by electrons:
     c_bands      :      0.92s CPU      1.02s WALL (       7 calls)
     sum_band     :      0.12s CPU      0.13s WALL (       7 calls)
     v_of_rho     :      0.09s CPU      0.08s WALL (       7 calls)
     mix_rho      :      0.00s CPU      0.01s WALL (       7 calls)

     Called by c_bands:
     init_us_2    :      0.03s CPU      0.03s WALL (     240 calls)
     init_us_2:cp :      0.03s CPU      0.03s WALL (     240 calls)
     cegterg      :      0.88s CPU      0.97s WALL (     112 calls)

     Called by *egterg:
     cdiaghg      :      0.00s CPU      0.01s WALL (     560 calls)
     h_psi        :      0.83s CPU      0.91s WALL (     592 calls)
     g_psi        :      0.05s CPU      0.01s WALL (     464 calls)

     Called by h_psi:
     h_psi:calbec :      0.06s CPU      0.04s WALL (     592 calls)
     vloc_psi     :      0.73s CPU      0.83s WALL (     592 calls)
     add_vuspsi   :      0.02s CPU      0.03s WALL (     592 calls)

     General routines
     calbec       :      0.06s CPU      0.04s WALL (     592 calls)
     fft          :      0.03s CPU      0.02s WALL (      70 calls)
     ffts         :      0.00s CPU      0.00s WALL (       7 calls)
     fftw         :      0.75s CPU      0.83s WALL (    4140 calls)


     PWSCF        :      1.20s CPU      1.32s WALL


   This run was terminated on:  11:31:11   9Jun2024            

=------------------------------------------------------------------------------=
   JOB DONE.
=------------------------------------------------------------------------------=
