
     Program PWSCF v.7.2 starts on  9Jun2024 at 11:31:13 

     This program is part of the open-source Quantum ESPRESSO suite
     for quantum simulation of materials; please cite
         "P. Giannozzi et al., J. Phys.:Condens. Matter 21 395502 (2009);
         "P. Giannozzi et al., J. Phys.:Condens. Matter 29 465901 (2017);
         "P. Giannozzi et al., J. Chem. Phys. 152 154105 (2020);
          URL http://www.quantum-espresso.org", 
     in publications or presentations arising from this work. More details at
     http://www.quantum-espresso.org/quote

     Serial version
     8930 MiB available memory on the printing compute node when the environment starts

     Waiting for input...
     Reading input from standard input

     Current dimensions of program PWSCF are:
     Max number of different atomic species (ntypx) = 10
     Max number of k-points (npk) =  40000
     Max angular momentum in pseudopotentials (lmaxx) =  4


     G-vector sticks info
     --------------------
     sticks:   dense  smooth     PW     G-vecs:    dense   smooth      PW
     Sum         583     583    187                 9257     9257    1639

     Using Slab Decomposition



     bravais-lattice index     =            2
     lattice parameter (alat)  =      10.2631  a.u.
     unit-cell volume          =     270.2564 (a.u.)^3
     number of atoms/cell      =            2
     number of atomic types    =            1
     number of electrons       =         8.00
     number of Kohn-Sham states=            4
     kinetic-energy cutoff     =      40.0000  Ry
     charge density cutoff     =     160.0000  Ry
     scf convergence threshold =      1.0E-08
     mixing beta               =       0.7000
     number of iterations used =            8  plain     mixing
     Exchange-correlation= PBE
                           (   1   4   3   4   0   0   0)

     celldm(1)=  10.263102  celldm(2)=   0.000000  celldm(3)=   0.000000
     celldm(4)=   0.000000  celldm(5)=   0.000000  celldm(6)=   0.000000

     crystal axes: (cart. coord. in units of alat)
               a(1) = (  -0.500000   0.000000   0.500000 )  
               a(2) = (   0.000000   0.500000   0.500000 )  
               a(3) = (  -0.500000   0.500000   0.000000 )  

     reciprocal axes: (cart. coord. in units 2 pi/alat)
               b(1) = ( -1.000000 -1.000000  1.000000 )  
               b(2) = (  1.000000  1.000000  1.000000 )  
               b(3) = ( -1.000000  1.000000 -1.000000 )  


     PseudoPot. # 1 for Si read from file:
     /home/paolo/project_labqsm/pseudopotentials/Si_ONCV_PBE-1.2.upf
     MD5 check sum: 7f029a58b69e3aa87b46a36c608bf45e
     Pseudo is Norm-conserving, Zval =  4.0
     Generated using ONCVPSP code by D. R. Hamann
     Using radial grid of  602 points,  4 beta functions with: 
                l(1) =   0
                l(2) =   0
                l(3) =   1
                l(4) =   1

     atomic species   valence    mass     pseudopotential
        Si             4.00    28.08500     Si( 1.00)

     48 Sym. Ops., with inversion, found (24 have fractional translation)



   Cartesian axes

     site n.     atom                  positions (alat units)
         1           Si  tau(   1) = (   0.0000000   0.0000000   0.0000000  )
         2           Si  tau(   2) = (   0.2500000   0.2500000   0.2500000  )

     number of k points=    72
                       cart. coord. in units 2pi/alat
        k(    1) = (   0.0000000   0.0000000   0.0000000), wk =   0.0011574
        k(    2) = (  -0.0833333   0.0833333  -0.0833333), wk =   0.0092593
        k(    3) = (  -0.1666667   0.1666667  -0.1666667), wk =   0.0092593
        k(    4) = (  -0.2500000   0.2500000  -0.2500000), wk =   0.0092593
        k(    5) = (  -0.3333333   0.3333333  -0.3333333), wk =   0.0092593
        k(    6) = (  -0.4166667   0.4166667  -0.4166667), wk =   0.0092593
        k(    7) = (   0.5000000  -0.5000000   0.5000000), wk =   0.0046296
        k(    8) = (   0.0000000   0.1666667   0.0000000), wk =   0.0069444
        k(    9) = (  -0.0833333   0.2500000  -0.0833333), wk =   0.0277778
        k(   10) = (  -0.1666667   0.3333333  -0.1666667), wk =   0.0277778
        k(   11) = (  -0.2500000   0.4166667  -0.2500000), wk =   0.0277778
        k(   12) = (  -0.3333333   0.5000000  -0.3333333), wk =   0.0277778
        k(   13) = (   0.5833333  -0.4166667   0.5833333), wk =   0.0277778
        k(   14) = (   0.5000000  -0.3333333   0.5000000), wk =   0.0277778
        k(   15) = (   0.4166667  -0.2500000   0.4166667), wk =   0.0277778
        k(   16) = (   0.3333333  -0.1666667   0.3333333), wk =   0.0277778
        k(   17) = (   0.2500000  -0.0833333   0.2500000), wk =   0.0277778
        k(   18) = (   0.1666667  -0.0000000   0.1666667), wk =   0.0138889
        k(   19) = (   0.0000000   0.3333333   0.0000000), wk =   0.0069444
        k(   20) = (  -0.0833333   0.4166667  -0.0833333), wk =   0.0277778
        k(   21) = (  -0.1666667   0.5000000  -0.1666667), wk =   0.0277778
        k(   22) = (  -0.2500000   0.5833333  -0.2500000), wk =   0.0277778
        k(   23) = (   0.6666667  -0.3333333   0.6666667), wk =   0.0277778
        k(   24) = (   0.5833333  -0.2500000   0.5833333), wk =   0.0277778
        k(   25) = (   0.5000000  -0.1666667   0.5000000), wk =   0.0277778
        k(   26) = (   0.4166667  -0.0833333   0.4166667), wk =   0.0277778
        k(   27) = (   0.3333333   0.0000000   0.3333333), wk =   0.0138889
        k(   28) = (   0.0000000   0.5000000   0.0000000), wk =   0.0069444
        k(   29) = (  -0.0833333   0.5833333  -0.0833333), wk =   0.0277778
        k(   30) = (  -0.1666667   0.6666667  -0.1666667), wk =   0.0277778
        k(   31) = (   0.7500000  -0.2500000   0.7500000), wk =   0.0277778
        k(   32) = (   0.6666667  -0.1666667   0.6666667), wk =   0.0277778
        k(   33) = (   0.5833333  -0.0833333   0.5833333), wk =   0.0277778
        k(   34) = (   0.5000000   0.0000000   0.5000000), wk =   0.0138889
        k(   35) = (   0.0000000   0.6666667   0.0000000), wk =   0.0069444
        k(   36) = (  -0.0833333   0.7500000  -0.0833333), wk =   0.0277778
        k(   37) = (   0.8333333  -0.1666667   0.8333333), wk =   0.0277778
        k(   38) = (   0.7500000  -0.0833333   0.7500000), wk =   0.0277778
        k(   39) = (   0.6666667  -0.0000000   0.6666667), wk =   0.0138889
        k(   40) = (   0.0000000   0.8333333   0.0000000), wk =   0.0069444
        k(   41) = (   0.9166667  -0.0833333   0.9166667), wk =   0.0277778
        k(   42) = (   0.8333333   0.0000000   0.8333333), wk =   0.0138889
        k(   43) = (   0.0000000  -1.0000000   0.0000000), wk =   0.0034722
        k(   44) = (  -0.1666667   0.3333333   0.0000000), wk =   0.0277778
        k(   45) = (  -0.2500000   0.4166667  -0.0833333), wk =   0.0555556
        k(   46) = (  -0.3333333   0.5000000  -0.1666667), wk =   0.0555556
        k(   47) = (   0.5833333  -0.4166667   0.7500000), wk =   0.0555556
        k(   48) = (   0.5000000  -0.3333333   0.6666667), wk =   0.0277778
        k(   49) = (  -0.1666667   0.5000000   0.0000000), wk =   0.0277778
        k(   50) = (  -0.2500000   0.5833333  -0.0833333), wk =   0.0555556
        k(   51) = (   0.6666667  -0.3333333   0.8333333), wk =   0.0555556
        k(   52) = (   0.5833333  -0.2500000   0.7500000), wk =   0.0555556
        k(   53) = (   0.5000000  -0.1666667   0.6666667), wk =   0.0555556
        k(   54) = (   0.4166667  -0.0833333   0.5833333), wk =   0.0555556
        k(   55) = (   0.3333333   0.0000000   0.5000000), wk =   0.0277778
        k(   56) = (  -0.1666667   0.6666667  -0.0000000), wk =   0.0277778
        k(   57) = (   0.7500000  -0.2500000   0.9166667), wk =   0.0555556
        k(   58) = (   0.6666667  -0.1666667   0.8333333), wk =   0.0555556
        k(   59) = (   0.5833333  -0.0833333   0.7500000), wk =   0.0555556
        k(   60) = (   0.5000000   0.0000000   0.6666667), wk =   0.0277778
        k(   61) = (   0.8333333  -0.1666667   1.0000000), wk =   0.0277778
        k(   62) = (   0.7500000  -0.0833333   0.9166667), wk =   0.0555556
        k(   63) = (   0.6666667   0.0000000   0.8333333), wk =   0.0277778
        k(   64) = (  -0.1666667  -1.0000000  -0.0000000), wk =   0.0138889
        k(   65) = (   0.6666667  -0.3333333   1.0000000), wk =   0.0277778
        k(   66) = (   0.5833333  -0.2500000   0.9166667), wk =   0.0555556
        k(   67) = (   0.5000000  -0.1666667   0.8333333), wk =   0.0277778
        k(   68) = (   0.6666667  -0.1666667   1.0000000), wk =   0.0277778
        k(   69) = (   0.5833333  -0.0833333   0.9166667), wk =   0.0555556
        k(   70) = (   0.5000000   0.0000000   0.8333333), wk =   0.0277778
        k(   71) = (  -0.3333333  -1.0000000   0.0000000), wk =   0.0138889
        k(   72) = (  -0.5000000  -1.0000000   0.0000000), wk =   0.0069444

     Dense  grid:     9257 G-vectors     FFT dimensions: (  32,  32,  32)

     Estimated max dynamical RAM per process >      12.10 MB

     Initial potential from superposition of free atoms

     starting charge       7.9075, renormalised to       8.0000
     Starting wfcs are random

     total cpu time spent up to now is        0.2 secs

     Self-consistent Calculation

     iteration #  1     ecut=    40.00 Ry     beta= 0.70
     Davidson diagonalization with overlap
     ethr =  1.00E-02,  avg # of iterations =  8.2

     Threshold (ethr) on eigenvalues was too large:
     Diagonalizing with lowered threshold

     Davidson diagonalization with overlap
     ethr =  5.94E-04,  avg # of iterations =  3.2

     total cpu time spent up to now is        2.1 secs

     total energy              =     -15.76254341 Ry
     estimated scf accuracy    <       0.05227363 Ry

     iteration #  2     ecut=    40.00 Ry     beta= 0.70
     Davidson diagonalization with overlap
     ethr =  6.53E-04,  avg # of iterations =  1.0

     total cpu time spent up to now is        2.5 secs

     total energy              =     -15.76501361 Ry
     estimated scf accuracy    <       0.00237566 Ry

     iteration #  3     ecut=    40.00 Ry     beta= 0.70
     Davidson diagonalization with overlap
     ethr =  2.97E-05,  avg # of iterations =  3.1

     total cpu time spent up to now is        3.1 secs

     total energy              =     -15.76570975 Ry
     estimated scf accuracy    <       0.00004427 Ry

     iteration #  4     ecut=    40.00 Ry     beta= 0.70
     Davidson diagonalization with overlap
     ethr =  5.53E-07,  avg # of iterations =  4.5

     total cpu time spent up to now is        4.0 secs

     total energy              =     -15.76575466 Ry
     estimated scf accuracy    <       0.00000032 Ry

     iteration #  5     ecut=    40.00 Ry     beta= 0.70
     Davidson diagonalization with overlap
     ethr =  3.96E-09,  avg # of iterations =  5.7

     total cpu time spent up to now is        4.9 secs

     total energy              =     -15.76575566 Ry
     estimated scf accuracy    <       0.00000001 Ry

     iteration #  6     ecut=    40.00 Ry     beta= 0.70
     Davidson diagonalization with overlap
     ethr =  1.62E-10,  avg # of iterations =  3.3

     total cpu time spent up to now is        5.5 secs

     End of self-consistent calculation

          k = 0.0000 0.0000 0.0000 (  1139 PWs)   bands (ev):

    -5.7370   6.2218   6.2218   6.2218

          k =-0.0833 0.0833-0.0833 (  1185 PWs)   bands (ev):

    -5.6460   5.3622   6.0787   6.0787

          k =-0.1667 0.1667-0.1667 (  1167 PWs)   bands (ev):

    -5.3761   3.8410   5.7741   5.7741

          k =-0.2500 0.2500-0.2500 (  1164 PWs)   bands (ev):

    -4.9379   2.2958   5.4664   5.4664

          k =-0.3333 0.3333-0.3333 (  1149 PWs)   bands (ev):

    -4.3613   0.8896   5.2272   5.2272

          k =-0.4167 0.4167-0.4167 (  1155 PWs)   bands (ev):

    -3.7415  -0.2394   5.0797   5.0797

          k = 0.5000-0.5000 0.5000 (  1158 PWs)   bands (ev):

    -3.4080  -0.7444   5.0302   5.0302

          k = 0.0000 0.1667 0.0000 (  1179 PWs)   bands (ev):

    -5.6156   5.5250   5.7936   5.7936

          k =-0.0833 0.2500-0.0833 (  1164 PWs)   bands (ev):

    -5.4048   4.2933   5.4315   5.6200

          k =-0.1667 0.3333-0.1667 (  1155 PWs)   bands (ev):

    -5.0211   2.7927   5.1198   5.2974

          k =-0.2500 0.4167-0.2500 (  1151 PWs)   bands (ev):

    -4.4856   1.3572   4.9111   4.9452

          k =-0.3333 0.5000-0.3333 (  1153 PWs)   bands (ev):

    -3.8605   0.1277   4.6497   4.8220

          k = 0.5833-0.4167 0.5833 (  1160 PWs)   bands (ev):

    -3.3705  -0.6414   4.4452   4.8532

          k = 0.5000-0.3333 0.5000 (  1156 PWs)   bands (ev):

    -3.4911  -0.4639   4.3500   4.9961

          k = 0.4167-0.2500 0.4167 (  1147 PWs)   bands (ev):

    -4.0723   0.5077   4.3771   5.2349

          k = 0.3333-0.1667 0.3333 (  1151 PWs)   bands (ev):

    -4.6797   1.8213   4.5363   5.5436

          k = 0.2500-0.0833 0.2500 (  1160 PWs)   bands (ev):

    -5.1681   3.2790   4.8398   5.8712

          k = 0.1667-0.0000 0.1667 (  1171 PWs)   bands (ev):

    -5.4952   4.6311   5.3613   6.1048

          k = 0.0000 0.3333 0.0000 (  1162 PWs)   bands (ev):

    -5.2532   4.1795   5.0339   5.0339

          k =-0.0833 0.4167-0.0833 (  1158 PWs)   bands (ev):

    -4.9263   3.0945   4.6858   4.7007

          k =-0.1667 0.5000-0.1667 (  1151 PWs)   bands (ev):

    -4.4385   1.7856   4.2328   4.4830

          k =-0.2500 0.5833-0.2500 (  1152 PWs)   bands (ev):

    -3.8312   0.5519   3.7935   4.3996

          k = 0.6667-0.3333 0.6667 (  1153 PWs)   bands (ev):

    -3.2484  -0.3815   3.4492   4.4536

          k = 0.5833-0.2500 0.5833 (  1157 PWs)   bands (ev):

    -3.1342  -0.5411   3.2356   4.6373

          k = 0.5000-0.1667 0.5000 (  1156 PWs)   bands (ev):

    -3.6328   0.2171   3.1793   4.9315

          k = 0.4167-0.0833 0.4167 (  1156 PWs)   bands (ev):

    -4.2567   1.3630   3.3242   5.2985

          k = 0.3333 0.0000 0.3333 (  1147 PWs)   bands (ev):

    -4.7883   2.5040   3.8149   5.6612

          k = 0.0000 0.5000 0.0000 (  1174 PWs)   bands (ev):

    -4.6558   2.7014   4.3393   4.3393

          k =-0.0833 0.5833-0.0833 (  1154 PWs)   bands (ev):

    -4.2195   1.7925   3.8735   4.0937

          k =-0.1667 0.6667-0.1667 (  1153 PWs)   bands (ev):

    -3.6446   0.7648   3.2405   3.9870

          k = 0.7500-0.2500 0.7500 (  1156 PWs)   bands (ev):

    -3.0211  -0.1604   2.6936   4.0258

          k = 0.6667-0.1667 0.6667 (  1151 PWs)   bands (ev):

    -2.6977  -0.5743   2.3307   4.2055

          k = 0.5833-0.0833 0.5833 (  1152 PWs)   bands (ev):

    -3.0732  -0.0810   2.2116   4.5097

          k = 0.5000 0.0000 0.5000 (  1159 PWs)   bands (ev):

    -3.6948   0.7413   2.4758   4.9010

          k = 0.0000 0.6667 0.0000 (  1150 PWs)   bands (ev):

    -3.8340   1.2089   3.8133   3.8133

          k =-0.0833 0.7500-0.0833 (  1152 PWs)   bands (ev):

    -3.2996   0.4236   3.3267   3.6711

          k = 0.8333-0.1667 0.8333 (  1149 PWs)   bands (ev):

    -2.6710  -0.3444   2.5977   3.6774

          k = 0.7500-0.0833 0.7500 (  1149 PWs)   bands (ev):

    -2.2026  -0.8350   2.0187   3.8309

          k = 0.6667-0.0000 0.6667 (  1141 PWs)   bands (ev):

    -2.4754  -0.5488   1.8167   4.1189

          k = 0.0000 0.8333 0.0000 (  1162 PWs)   bands (ev):

    -2.8051  -0.2412   3.4892   3.4892

          k = 0.9167-0.0833 0.9167 (  1150 PWs)   bands (ev):

    -2.1918  -0.9288   3.0563   3.4556

          k = 0.8333 0.0000 0.8333 (  1154 PWs)   bands (ev):

    -1.7366  -1.3325   2.3845   3.5725

          k = 0.0000-1.0000 0.0000 (  1162 PWs)   bands (ev):

    -1.5951  -1.5951   3.3799   3.3799

          k =-0.1667 0.3333 0.0000 (  1157 PWs)   bands (ev):

    -5.1362   3.4935   4.5928   5.5188

          k =-0.2500 0.4167-0.0833 (  1148 PWs)   bands (ev):

    -4.7002   2.2534   4.0606   5.2450

          k =-0.3333 0.5000-0.1667 (  1155 PWs)   bands (ev):

    -4.1254   0.9526   3.7910   4.9188

          k = 0.5833-0.4167 0.7500 (  1151 PWs)   bands (ev):

    -3.5042  -0.1365   3.6635   4.6732

          k = 0.5000-0.3333 0.6667 (  1152 PWs)   bands (ev):

    -3.1663  -0.6343   3.6279   4.5819

          k =-0.1667 0.5000 0.0000 (  1156 PWs)   bands (ev):

    -4.5454   2.3000   3.8988   4.6011

          k =-0.2500 0.5833-0.0833 (  1152 PWs)   bands (ev):

    -4.0132   1.2505   3.3610   4.3133

          k = 0.6667-0.3333 0.8333 (  1153 PWs)   bands (ev):

    -3.3882   0.1969   3.0038   4.1032

          k = 0.5833-0.2500 0.7500 (  1152 PWs)   bands (ev):

    -2.8919  -0.5088   2.7579   4.0852

          k = 0.5000-0.1667 0.6667 (  1155 PWs)   bands (ev):

    -3.0274  -0.3218   2.6397   4.2576

          k = 0.4167-0.0833 0.5833 (  1154 PWs)   bands (ev):

    -3.6171   0.5545   2.7142   4.5740

          k = 0.3333 0.0000 0.5000 (  1157 PWs)   bands (ev):

    -4.2193   1.5332   3.1295   4.9550

          k =-0.1667 0.6667-0.0000 (  1154 PWs)   bands (ev):

    -3.7354   1.0340   3.3902   3.8185

          k = 0.7500-0.2500 0.9167 (  1156 PWs)   bands (ev):

    -3.1302   0.1991   2.8017   3.6016

          k = 0.6667-0.1667 0.8333 (  1154 PWs)   bands (ev):

    -2.5413  -0.5151   2.2802   3.6095

          k = 0.5833-0.0833 0.7500 (  1157 PWs)   bands (ev):

    -2.4705  -0.5859   1.9916   3.8078

          k = 0.5000 0.0000 0.6667 (  1161 PWs)   bands (ev):

    -3.0077   0.0042   2.0783   4.1525

          k = 0.8333-0.1667 1.0000 (  1160 PWs)   bands (ev):

    -2.7278  -0.2777   3.1072   3.3041

          k = 0.7500-0.0833 0.9167 (  1153 PWs)   bands (ev):

    -2.0992  -0.9204   2.4778   3.2600

          k = 0.6667 0.0000 0.8333 (  1151 PWs)   bands (ev):

    -1.9449  -1.0336   1.9794   3.4569

          k =-0.1667-1.0000-0.0000 (  1148 PWs)   bands (ev):

    -1.5571  -1.5571   3.0723   3.0723

          k = 0.6667-0.3333 1.0000 (  1151 PWs)   bands (ev):

    -3.4492   0.5771   2.6594   3.9342

          k = 0.5833-0.2500 0.9167 (  1152 PWs)   bands (ev):

    -2.8256  -0.1924   2.3121   3.5974

          k = 0.5000-0.1667 0.8333 (  1152 PWs)   bands (ev):

    -2.4655  -0.6211   2.2189   3.4681

          k = 0.6667-0.1667 1.0000 (  1155 PWs)   bands (ev):

    -2.5142  -0.4218   2.4612   3.0802

          k = 0.5833-0.0833 0.9167 (  1158 PWs)   bands (ev):

    -1.9914  -0.9281   2.1457   2.9259

          k = 0.5000 0.0000 0.8333 (  1153 PWs)   bands (ev):

    -2.2229  -0.6983   2.0207   3.1508

          k =-0.3333-1.0000 0.0000 (  1154 PWs)   bands (ev):

    -1.4757  -1.4757   2.5852   2.5852

          k =-0.5000-1.0000 0.0000 (  1144 PWs)   bands (ev):

    -1.4318  -1.4318   2.3771   2.3771

     highest occupied level (ev):     6.2218

!    total energy              =     -15.76575567 Ry
     estimated scf accuracy    <          1.2E-09 Ry

     The total energy is the sum of the following terms:
     one-electron contribution =       4.74406031 Ry
     hartree contribution      =       1.10119822 Ry
     xc contribution           =      -4.81516238 Ry
     ewald contribution        =     -16.79585182 Ry

     convergence has been achieved in   6 iterations

     Writing all to output data dir ./SCRATCH/silicon.save/

     init_run     :      0.22s CPU      0.22s WALL (       1 calls)
     electrons    :      5.00s CPU      5.28s WALL (       1 calls)

     Called by init_run:
     wfcinit      :      0.19s CPU      0.17s WALL (       1 calls)
     potinit      :      0.02s CPU      0.02s WALL (       1 calls)
     hinit0       :      0.02s CPU      0.01s WALL (       1 calls)

     Called by electrons:
     c_bands      :      4.42s CPU      4.67s WALL (       7 calls)
     sum_band     :      0.52s CPU      0.53s WALL (       7 calls)
     v_of_rho     :      0.06s CPU      0.08s WALL (       7 calls)
     mix_rho      :      0.02s CPU      0.01s WALL (       7 calls)

     Called by c_bands:
     init_us_2    :      0.09s CPU      0.14s WALL (    1080 calls)
     init_us_2:cp :      0.09s CPU      0.13s WALL (    1080 calls)
     cegterg      :      4.25s CPU      4.43s WALL (     504 calls)

     Called by *egterg:
     cdiaghg      :      0.05s CPU      0.05s WALL (    2520 calls)
     h_psi        :      3.98s CPU      4.15s WALL (    2664 calls)
     g_psi        :      0.00s CPU      0.02s WALL (    2088 calls)

     Called by h_psi:
     h_psi:calbec :      0.09s CPU      0.18s WALL (    2664 calls)
     vloc_psi     :      3.81s CPU      3.80s WALL (    2664 calls)
     add_vuspsi   :      0.08s CPU      0.13s WALL (    2664 calls)

     General routines
     calbec       :      0.09s CPU      0.17s WALL (    2664 calls)
     fft          :      0.02s CPU      0.02s WALL (      70 calls)
     ffts         :      0.00s CPU      0.00s WALL (       7 calls)
     fftw         :      3.78s CPU      3.80s WALL (   18502 calls)


     PWSCF        :      5.25s CPU      5.54s WALL


   This run was terminated on:  11:31:19   9Jun2024            

=------------------------------------------------------------------------------=
   JOB DONE.
=------------------------------------------------------------------------------=
