
     Program PWSCF v.7.2 starts on  5May2024 at 10: 4:39 

     This program is part of the open-source Quantum ESPRESSO suite
     for quantum simulation of materials; please cite
         "P. Giannozzi et al., J. Phys.:Condens. Matter 21 395502 (2009);
         "P. Giannozzi et al., J. Phys.:Condens. Matter 29 465901 (2017);
         "P. Giannozzi et al., J. Chem. Phys. 152 154105 (2020);
          URL http://www.quantum-espresso.org", 
     in publications or presentations arising from this work. More details at
     http://www.quantum-espresso.org/quote

     Serial version
     9556 MiB available memory on the printing compute node when the environment starts

     Waiting for input...
     Reading input from standard input

     Current dimensions of program PWSCF are:
     Max number of different atomic species (ntypx) = 10
     Max number of k-points (npk) =  40000
     Max angular momentum in pseudopotentials (lmaxx) =  4


     G-vector sticks info
     --------------------
     sticks:   dense  smooth     PW     G-vecs:    dense   smooth      PW
     Sum         583     583    187                 9257     9257    1639

     Using Slab Decomposition



     bravais-lattice index     =            2
     lattice parameter (alat)  =      10.2631  a.u.
     unit-cell volume          =     270.2564 (a.u.)^3
     number of atoms/cell      =            1
     number of atomic types    =            1
     number of electrons       =         4.00
     number of Kohn-Sham states=            2
     kinetic-energy cutoff     =      40.0000  Ry
     charge density cutoff     =     160.0000  Ry
     scf convergence threshold =      1.0E-08
     mixing beta               =       0.7000
     number of iterations used =            8  plain     mixing
     Exchange-correlation=  SLA  PZ   NOGX NOGC
                           (   1   1   0   0   0   0   0)

     celldm(1)=  10.263102  celldm(2)=   0.000000  celldm(3)=   0.000000
     celldm(4)=   0.000000  celldm(5)=   0.000000  celldm(6)=   0.000000

     crystal axes: (cart. coord. in units of alat)
               a(1) = (  -0.500000   0.000000   0.500000 )  
               a(2) = (   0.000000   0.500000   0.500000 )  
               a(3) = (  -0.500000   0.500000   0.000000 )  

     reciprocal axes: (cart. coord. in units 2 pi/alat)
               b(1) = ( -1.000000 -1.000000  1.000000 )  
               b(2) = (  1.000000  1.000000  1.000000 )  
               b(3) = ( -1.000000  1.000000 -1.000000 )  


     PseudoPot. # 1 for Si read from file:
     /home/paolo/project_labqsm/pseudopotentials/Si.pz-vbc.UPF
     MD5 check sum: dc3b11d017da532b29132e08c0a6883c
     Pseudo is Norm-conserving, Zval =  4.0
     Generated by new atomic code, or converted to UPF format
     Using radial grid of  431 points,  2 beta functions with: 
                l(1) =   0
                l(2) =   1

     atomic species   valence    mass     pseudopotential
        Si             4.00    12.01100     Si( 1.00)

     48 Sym. Ops., with inversion, found



   Cartesian axes

     site n.     atom                  positions (alat units)
         1           Si  tau(   1) = (   0.0000000   0.0000000   0.0000000  )

     number of k points=    16
                       cart. coord. in units 2pi/alat
        k(    1) = (   0.0000000   0.0000000   0.0000000), wk =   0.0092593
        k(    2) = (  -0.1666667   0.1666667  -0.1666667), wk =   0.0740741
        k(    3) = (  -0.3333333   0.3333333  -0.3333333), wk =   0.0740741
        k(    4) = (   0.5000000  -0.5000000   0.5000000), wk =   0.0370370
        k(    5) = (   0.0000000   0.3333333   0.0000000), wk =   0.0555556
        k(    6) = (  -0.1666667   0.5000000  -0.1666667), wk =   0.2222222
        k(    7) = (   0.6666667  -0.3333333   0.6666667), wk =   0.2222222
        k(    8) = (   0.5000000  -0.1666667   0.5000000), wk =   0.2222222
        k(    9) = (   0.3333333   0.0000000   0.3333333), wk =   0.1111111
        k(   10) = (   0.0000000   0.6666667   0.0000000), wk =   0.0555556
        k(   11) = (   0.8333333  -0.1666667   0.8333333), wk =   0.2222222
        k(   12) = (   0.6666667  -0.0000000   0.6666667), wk =   0.1111111
        k(   13) = (   0.0000000  -1.0000000   0.0000000), wk =   0.0277778
        k(   14) = (   0.6666667  -0.3333333   1.0000000), wk =   0.2222222
        k(   15) = (   0.5000000  -0.1666667   0.8333333), wk =   0.2222222
        k(   16) = (  -0.3333333  -1.0000000   0.0000000), wk =   0.1111111

     Dense  grid:     9257 G-vectors     FFT dimensions: (  30,  30,  30)

     Estimated max dynamical RAM per process >       6.60 MB

     Initial potential from superposition of free atoms

     starting charge       3.9995, renormalised to       4.0000
     Starting wfcs are    4 randomized atomic wfcs

     total cpu time spent up to now is        0.1 secs

     Self-consistent Calculation

     iteration #  1     ecut=    40.00 Ry     beta= 0.70
     Davidson diagonalization with overlap
     ethr =  1.00E-02,  avg # of iterations =  1.0

     Threshold (ethr) on eigenvalues was too large:
     Diagonalizing with lowered threshold

     Davidson diagonalization with overlap
     ethr =  7.01E-05,  avg # of iterations =  3.0

     total cpu time spent up to now is        0.2 secs

     total energy              =      -7.69780723 Ry
     estimated scf accuracy    <       0.00305264 Ry

     iteration #  2     ecut=    40.00 Ry     beta= 0.70
     Davidson diagonalization with overlap
     ethr =  7.63E-05,  avg # of iterations =  1.1

     total cpu time spent up to now is        0.2 secs

     total energy              =      -7.69804458 Ry
     estimated scf accuracy    <       0.00006412 Ry

     iteration #  3     ecut=    40.00 Ry     beta= 0.70
     Davidson diagonalization with overlap
     ethr =  1.60E-06,  avg # of iterations =  2.1

     total cpu time spent up to now is        0.3 secs

     total energy              =      -7.69806579 Ry
     estimated scf accuracy    <       0.00000162 Ry

     iteration #  4     ecut=    40.00 Ry     beta= 0.70
     Davidson diagonalization with overlap
     ethr =  4.04E-08,  avg # of iterations =  4.7

     total cpu time spent up to now is        0.4 secs

     total energy              =      -7.69806919 Ry
     estimated scf accuracy    <       0.00000006 Ry

     iteration #  5     ecut=    40.00 Ry     beta= 0.70
     Davidson diagonalization with overlap
     ethr =  1.52E-09,  avg # of iterations =  3.9

     total cpu time spent up to now is        0.4 secs

     End of self-consistent calculation

          k = 0.0000 0.0000 0.0000 (  1139 PWs)   bands (ev):

    -6.9638   4.4137

          k =-0.1667 0.1667-0.1667 (  1167 PWs)   bands (ev):

    -6.6402   2.6982

          k =-0.3333 0.3333-0.3333 (  1149 PWs)   bands (ev):

    -5.7803   0.1663

          k = 0.5000-0.5000 0.5000 (  1158 PWs)   bands (ev):

    -5.1090  -1.1279

          k = 0.0000 0.3333 0.0000 (  1162 PWs)   bands (ev):

    -6.5317   2.9813

          k =-0.1667 0.5000-0.1667 (  1151 PWs)   bands (ev):

    -5.8399   1.0305

          k = 0.6667-0.3333 0.6667 (  1153 PWs)   bands (ev):

    -4.9916  -0.6750

          k = 0.5000-0.1667 0.5000 (  1156 PWs)   bands (ev):

    -5.2336  -0.2363

          k = 0.3333 0.0000 0.3333 (  1147 PWs)   bands (ev):

    -6.1299   1.6017

          k = 0.0000 0.6667 0.0000 (  1150 PWs)   bands (ev):

    -5.3702   0.7545

          k = 0.8333-0.1667 0.8333 (  1149 PWs)   bands (ev):

    -4.6608  -0.1317

          k = 0.6667-0.0000 0.6667 (  1141 PWs)   bands (ev):

    -4.5797   0.1577

          k = 0.0000-1.0000 0.0000 (  1162 PWs)   bands (ev):

    -4.4183  -0.5921

          k = 0.6667-0.3333 1.0000 (  1151 PWs)   bands (ev):

    -5.1012   0.3360

          k = 0.5000-0.1667 0.8333 (  1152 PWs)   bands (ev):

    -4.5782  -0.2381

          k =-0.3333-1.0000 0.0000 (  1154 PWs)   bands (ev):

    -4.3649  -0.1205

     highest occupied level (ev):     4.4137

!    total energy              =      -7.69806929 Ry
     estimated scf accuracy    <          4.8E-10 Ry

     The total energy is the sum of the following terms:
     one-electron contribution =       1.01818806 Ry
     hartree contribution      =       0.43880129 Ry
     xc contribution           =      -2.00733716 Ry
     ewald contribution        =      -7.14772149 Ry

     convergence has been achieved in   5 iterations

     Writing all to output data dir ./SCRATCH/silicon.save/

     init_run     :      0.05s CPU      0.06s WALL (       1 calls)
     electrons    :      0.31s CPU      0.38s WALL (       1 calls)

     Called by init_run:
     wfcinit      :      0.03s CPU      0.04s WALL (       1 calls)
     potinit      :      0.00s CPU      0.00s WALL (       1 calls)
     hinit0       :      0.00s CPU      0.01s WALL (       1 calls)

     Called by electrons:
     c_bands      :      0.22s CPU      0.31s WALL (       6 calls)
     sum_band     :      0.09s CPU      0.06s WALL (       6 calls)
     v_of_rho     :      0.00s CPU      0.01s WALL (       6 calls)
     mix_rho      :      0.00s CPU      0.01s WALL (       6 calls)

     Called by c_bands:
     init_us_2    :      0.02s CPU      0.02s WALL (     208 calls)
     init_us_2:cp :      0.02s CPU      0.02s WALL (     208 calls)
     cegterg      :      0.20s CPU      0.28s WALL (      96 calls)

     Called by *egterg:
     cdiaghg      :      0.00s CPU      0.00s WALL (     333 calls)
     h_psi        :      0.22s CPU      0.29s WALL (     365 calls)
     g_psi        :      0.00s CPU      0.00s WALL (     253 calls)

     Called by h_psi:
     h_psi:calbec :      0.00s CPU      0.01s WALL (     365 calls)
     vloc_psi     :      0.22s CPU      0.27s WALL (     365 calls)
     add_vuspsi   :      0.00s CPU      0.00s WALL (     365 calls)

     General routines
     calbec       :      0.00s CPU      0.00s WALL (     365 calls)
     fft          :      0.00s CPU      0.00s WALL (      18 calls)
     ffts         :      0.00s CPU      0.00s WALL (       6 calls)
     fftw         :      0.28s CPU      0.28s WALL (    1522 calls)


     PWSCF        :      0.36s CPU      0.46s WALL


   This run was terminated on:  10: 4:39   5May2024            

=------------------------------------------------------------------------------=
   JOB DONE.
=------------------------------------------------------------------------------=
