
     Program PWSCF v.7.2 starts on  9Jun2024 at 11:31:11 

     This program is part of the open-source Quantum ESPRESSO suite
     for quantum simulation of materials; please cite
         "P. Giannozzi et al., J. Phys.:Condens. Matter 21 395502 (2009);
         "P. Giannozzi et al., J. Phys.:Condens. Matter 29 465901 (2017);
         "P. Giannozzi et al., J. Chem. Phys. 152 154105 (2020);
          URL http://www.quantum-espresso.org", 
     in publications or presentations arising from this work. More details at
     http://www.quantum-espresso.org/quote

     Serial version
     8951 MiB available memory on the printing compute node when the environment starts

     Waiting for input...
     Reading input from standard input

     Current dimensions of program PWSCF are:
     Max number of different atomic species (ntypx) = 10
     Max number of k-points (npk) =  40000
     Max angular momentum in pseudopotentials (lmaxx) =  4


     G-vector sticks info
     --------------------
     sticks:   dense  smooth     PW     G-vecs:    dense   smooth      PW
     Sum         583     583    187                 9257     9257    1639

     Using Slab Decomposition



     bravais-lattice index     =            2
     lattice parameter (alat)  =      10.2631  a.u.
     unit-cell volume          =     270.2564 (a.u.)^3
     number of atoms/cell      =            2
     number of atomic types    =            1
     number of electrons       =         8.00
     number of Kohn-Sham states=            4
     kinetic-energy cutoff     =      40.0000  Ry
     charge density cutoff     =     160.0000  Ry
     scf convergence threshold =      1.0E-08
     mixing beta               =       0.7000
     number of iterations used =            8  plain     mixing
     Exchange-correlation= PBE
                           (   1   4   3   4   0   0   0)

     celldm(1)=  10.263102  celldm(2)=   0.000000  celldm(3)=   0.000000
     celldm(4)=   0.000000  celldm(5)=   0.000000  celldm(6)=   0.000000

     crystal axes: (cart. coord. in units of alat)
               a(1) = (  -0.500000   0.000000   0.500000 )  
               a(2) = (   0.000000   0.500000   0.500000 )  
               a(3) = (  -0.500000   0.500000   0.000000 )  

     reciprocal axes: (cart. coord. in units 2 pi/alat)
               b(1) = ( -1.000000 -1.000000  1.000000 )  
               b(2) = (  1.000000  1.000000  1.000000 )  
               b(3) = ( -1.000000  1.000000 -1.000000 )  


     PseudoPot. # 1 for Si read from file:
     /home/paolo/project_labqsm/pseudopotentials/Si_ONCV_PBE-1.2.upf
     MD5 check sum: 7f029a58b69e3aa87b46a36c608bf45e
     Pseudo is Norm-conserving, Zval =  4.0
     Generated using ONCVPSP code by D. R. Hamann
     Using radial grid of  602 points,  4 beta functions with: 
                l(1) =   0
                l(2) =   0
                l(3) =   1
                l(4) =   1

     atomic species   valence    mass     pseudopotential
        Si             4.00    28.08500     Si( 1.00)

     48 Sym. Ops., with inversion, found (24 have fractional translation)



   Cartesian axes

     site n.     atom                  positions (alat units)
         1           Si  tau(   1) = (   0.0000000   0.0000000   0.0000000  )
         2           Si  tau(   2) = (   0.2500000   0.2500000   0.2500000  )

     number of k points=    29
                       cart. coord. in units 2pi/alat
        k(    1) = (   0.0000000   0.0000000   0.0000000), wk =   0.0039062
        k(    2) = (  -0.1250000   0.1250000  -0.1250000), wk =   0.0312500
        k(    3) = (  -0.2500000   0.2500000  -0.2500000), wk =   0.0312500
        k(    4) = (  -0.3750000   0.3750000  -0.3750000), wk =   0.0312500
        k(    5) = (   0.5000000  -0.5000000   0.5000000), wk =   0.0156250
        k(    6) = (   0.0000000   0.2500000   0.0000000), wk =   0.0234375
        k(    7) = (  -0.1250000   0.3750000  -0.1250000), wk =   0.0937500
        k(    8) = (  -0.2500000   0.5000000  -0.2500000), wk =   0.0937500
        k(    9) = (   0.6250000  -0.3750000   0.6250000), wk =   0.0937500
        k(   10) = (   0.5000000  -0.2500000   0.5000000), wk =   0.0937500
        k(   11) = (   0.3750000  -0.1250000   0.3750000), wk =   0.0937500
        k(   12) = (   0.2500000   0.0000000   0.2500000), wk =   0.0468750
        k(   13) = (   0.0000000   0.5000000   0.0000000), wk =   0.0234375
        k(   14) = (  -0.1250000   0.6250000  -0.1250000), wk =   0.0937500
        k(   15) = (   0.7500000  -0.2500000   0.7500000), wk =   0.0937500
        k(   16) = (   0.6250000  -0.1250000   0.6250000), wk =   0.0937500
        k(   17) = (   0.5000000   0.0000000   0.5000000), wk =   0.0468750
        k(   18) = (   0.0000000   0.7500000   0.0000000), wk =   0.0234375
        k(   19) = (   0.8750000  -0.1250000   0.8750000), wk =   0.0937500
        k(   20) = (   0.7500000   0.0000000   0.7500000), wk =   0.0468750
        k(   21) = (   0.0000000  -1.0000000   0.0000000), wk =   0.0117188
        k(   22) = (  -0.2500000   0.5000000   0.0000000), wk =   0.0937500
        k(   23) = (   0.6250000  -0.3750000   0.8750000), wk =   0.1875000
        k(   24) = (   0.5000000  -0.2500000   0.7500000), wk =   0.0937500
        k(   25) = (   0.7500000  -0.2500000   1.0000000), wk =   0.0937500
        k(   26) = (   0.6250000  -0.1250000   0.8750000), wk =   0.1875000
        k(   27) = (   0.5000000   0.0000000   0.7500000), wk =   0.0937500
        k(   28) = (  -0.2500000  -1.0000000   0.0000000), wk =   0.0468750
        k(   29) = (  -0.5000000  -1.0000000   0.0000000), wk =   0.0234375

     Dense  grid:     9257 G-vectors     FFT dimensions: (  32,  32,  32)

     Estimated max dynamical RAM per process >       9.07 MB

     Initial potential from superposition of free atoms

     starting charge       7.9075, renormalised to       8.0000
     Starting wfcs are random

     total cpu time spent up to now is        0.1 secs

     Self-consistent Calculation

     iteration #  1     ecut=    40.00 Ry     beta= 0.70
     Davidson diagonalization with overlap
     ethr =  1.00E-02,  avg # of iterations =  8.4

     Threshold (ethr) on eigenvalues was too large:
     Diagonalizing with lowered threshold

     Davidson diagonalization with overlap
     ethr =  6.13E-04,  avg # of iterations =  3.2

     total cpu time spent up to now is        0.9 secs

     total energy              =     -15.76237961 Ry
     estimated scf accuracy    <       0.05275054 Ry

     iteration #  2     ecut=    40.00 Ry     beta= 0.70
     Davidson diagonalization with overlap
     ethr =  6.59E-04,  avg # of iterations =  1.0

     total cpu time spent up to now is        1.1 secs

     total energy              =     -15.76483792 Ry
     estimated scf accuracy    <       0.00236426 Ry

     iteration #  3     ecut=    40.00 Ry     beta= 0.70
     Davidson diagonalization with overlap
     ethr =  2.96E-05,  avg # of iterations =  3.1

     total cpu time spent up to now is        1.3 secs

     total energy              =     -15.76542761 Ry
     estimated scf accuracy    <       0.00004022 Ry

     iteration #  4     ecut=    40.00 Ry     beta= 0.70
     Davidson diagonalization with overlap
     ethr =  5.03E-07,  avg # of iterations =  4.9

     total cpu time spent up to now is        1.7 secs

     total energy              =     -15.76547482 Ry
     estimated scf accuracy    <       0.00000051 Ry

     iteration #  5     ecut=    40.00 Ry     beta= 0.70
     Davidson diagonalization with overlap
     ethr =  6.38E-09,  avg # of iterations =  4.7

     total cpu time spent up to now is        2.0 secs

     total energy              =     -15.76547559 Ry
     estimated scf accuracy    <       0.00000007 Ry

     iteration #  6     ecut=    40.00 Ry     beta= 0.70
     Davidson diagonalization with overlap
     ethr =  8.98E-10,  avg # of iterations =  2.4

     total cpu time spent up to now is        2.2 secs

     End of self-consistent calculation

          k = 0.0000 0.0000 0.0000 (  1139 PWs)   bands (ev):

    -5.7355   6.2236   6.2236   6.2236

          k =-0.1250 0.1250-0.1250 (  1173 PWs)   bands (ev):

    -5.5316   4.6243   5.9362   5.9362

          k =-0.2500 0.2500-0.2500 (  1164 PWs)   bands (ev):

    -4.9364   2.2974   5.4681   5.4681

          k =-0.3750 0.3750-0.3750 (  1155 PWs)   bands (ev):

    -4.0435   0.2785   5.1430   5.1430

          k = 0.5000-0.5000 0.5000 (  1158 PWs)   bands (ev):

    -3.4064  -0.7430   5.0318   5.0318

          k = 0.0000 0.2500 0.0000 (  1163 PWs)   bands (ev):

    -5.4628   4.8858   5.4203   5.4203

          k =-0.1250 0.3750-0.1250 (  1160 PWs)   bands (ev):

    -4.9945   2.9988   4.9105   4.9835

          k =-0.2500 0.5000-0.2500 (  1151 PWs)   bands (ev):

    -4.1802   0.9400   4.3925   4.6438

          k = 0.6250-0.3750 0.6250 (  1160 PWs)   bands (ev):

    -3.3197  -0.5222   3.9476   4.6688

          k = 0.5000-0.2500 0.5000 (  1151 PWs)   bands (ev):

    -3.5639  -0.1519   3.7663   4.9648

          k = 0.3750-0.1250 0.3750 (  1151 PWs)   bands (ev):

    -4.4862   1.5987   3.9173   5.4547

          k = 0.2500 0.0000 0.2500 (  1159 PWs)   bands (ev):

    -5.1956   3.5386   4.5993   5.9334

          k = 0.0000 0.5000 0.0000 (  1174 PWs)   bands (ev):

    -4.6543   2.7032   4.3408   4.3408

          k =-0.1250 0.6250-0.1250 (  1157 PWs)   bands (ev):

    -3.9448   1.2815   3.5591   4.0237

          k = 0.7500-0.2500 0.7500 (  1156 PWs)   bands (ev):

    -3.0195  -0.1588   2.6949   4.0272

          k = 0.6250-0.1250 0.6250 (  1150 PWs)   bands (ev):

    -2.8156  -0.4168   2.2366   4.3452

          k = 0.5000 0.0000 0.5000 (  1159 PWs)   bands (ev):

    -3.6933   0.7429   2.4771   4.9025

          k = 0.0000 0.7500 0.0000 (  1150 PWs)   bands (ev):

    -3.3425   0.4769   3.6263   3.6263

          k = 0.8750-0.1250 0.8750 (  1150 PWs)   bands (ev):

    -2.4458  -0.6075   2.7958   3.5505

          k = 0.7500 0.0000 0.7500 (  1144 PWs)   bands (ev):

    -2.0077  -1.0035   1.9292   3.8076

          k = 0.0000-1.0000 0.0000 (  1162 PWs)   bands (ev):

    -1.5936  -1.5936   3.3813   3.3813

          k =-0.2500 0.5000 0.0000 (  1153 PWs)   bands (ev):

    -4.4071   1.9330   3.5165   4.8013

          k = 0.6250-0.3750 0.8750 (  1150 PWs)   bands (ev):

    -3.5194   0.3825   2.9078   4.3010

          k = 0.5000-0.2500 0.7500 (  1154 PWs)   bands (ev):

    -2.8679  -0.5614   2.7784   4.0720

          k = 0.7500-0.2500 1.0000 (  1171 PWs)   bands (ev):

    -3.1442   0.2581   2.8686   3.4721

          k = 0.6250-0.1250 0.8750 (  1157 PWs)   bands (ev):

    -2.2702  -0.7091   2.1701   3.2713

          k = 0.5000 0.0000 0.7500 (  1153 PWs)   bands (ev):

    -2.6206  -0.3459   2.0032   3.6468

          k =-0.2500-1.0000 0.0000 (  1156 PWs)   bands (ev):

    -1.5158  -1.5158   2.8149   2.8149

          k =-0.5000-1.0000 0.0000 (  1144 PWs)   bands (ev):

    -1.4302  -1.4302   2.3783   2.3783

     highest occupied level (ev):     6.2236

!    total energy              =     -15.76547561 Ry
     estimated scf accuracy    <          3.6E-09 Ry

     The total energy is the sum of the following terms:
     one-electron contribution =       4.74381913 Ry
     hartree contribution      =       1.10214393 Ry
     xc contribution           =      -4.81558685 Ry
     ewald contribution        =     -16.79585182 Ry

     convergence has been achieved in   6 iterations

     Writing all to output data dir ./SCRATCH/silicon.save/

     init_run     :      0.11s CPU      0.11s WALL (       1 calls)
     electrons    :      2.02s CPU      2.11s WALL (       1 calls)

     Called by init_run:
     wfcinit      :      0.06s CPU      0.07s WALL (       1 calls)
     potinit      :      0.03s CPU      0.02s WALL (       1 calls)
     hinit0       :      0.00s CPU      0.01s WALL (       1 calls)

     Called by electrons:
     c_bands      :      1.70s CPU      1.80s WALL (       7 calls)
     sum_band     :      0.25s CPU      0.23s WALL (       7 calls)
     v_of_rho     :      0.08s CPU      0.09s WALL (       7 calls)
     mix_rho      :      0.00s CPU      0.01s WALL (       7 calls)

     Called by c_bands:
     init_us_2    :      0.06s CPU      0.06s WALL (     435 calls)
     init_us_2:cp :      0.06s CPU      0.05s WALL (     435 calls)
     cegterg      :      1.61s CPU      1.71s WALL (     203 calls)

     Called by *egterg:
     cdiaghg      :      0.00s CPU      0.02s WALL (     976 calls)
     h_psi        :      1.53s CPU      1.61s WALL (    1034 calls)
     g_psi        :      0.02s CPU      0.01s WALL (     802 calls)

     Called by h_psi:
     h_psi:calbec :      0.08s CPU      0.07s WALL (    1034 calls)
     vloc_psi     :      1.38s CPU      1.48s WALL (    1034 calls)
     add_vuspsi   :      0.08s CPU      0.05s WALL (    1034 calls)

     General routines
     calbec       :      0.08s CPU      0.06s WALL (    1034 calls)
     fft          :      0.03s CPU      0.02s WALL (      70 calls)
     ffts         :      0.00s CPU      0.00s WALL (       7 calls)
     fftw         :      1.34s CPU      1.49s WALL (    7276 calls)


     PWSCF        :      2.14s CPU      2.24s WALL


   This run was terminated on:  11:31:13   9Jun2024            

=------------------------------------------------------------------------------=
   JOB DONE.
=------------------------------------------------------------------------------=
