
     Program PWSCF v.7.2 starts on 12May2024 at 11:56:49 

     This program is part of the open-source Quantum ESPRESSO suite
     for quantum simulation of materials; please cite
         "P. Giannozzi et al., J. Phys.:Condens. Matter 21 395502 (2009);
         "P. Giannozzi et al., J. Phys.:Condens. Matter 29 465901 (2017);
         "P. Giannozzi et al., J. Chem. Phys. 152 154105 (2020);
          URL http://www.quantum-espresso.org", 
     in publications or presentations arising from this work. More details at
     http://www.quantum-espresso.org/quote

     Serial version
     8660 MiB available memory on the printing compute node when the environment starts

     Waiting for input...
     Reading input from standard input

     Current dimensions of program PWSCF are:
     Max number of different atomic species (ntypx) = 10
     Max number of k-points (npk) =  40000
     Max angular momentum in pseudopotentials (lmaxx) =  4


     G-vector sticks info
     --------------------
     sticks:   dense  smooth     PW     G-vecs:    dense   smooth      PW
     Sum         583     583    187                 9257     9257    1639

     Using Slab Decomposition



     bravais-lattice index     =            2
     lattice parameter (alat)  =      10.2631  a.u.
     unit-cell volume          =     270.2564 (a.u.)^3
     number of atoms/cell      =            2
     number of atomic types    =            1
     number of electrons       =         8.00
     number of Kohn-Sham states=            4
     kinetic-energy cutoff     =      40.0000  Ry
     charge density cutoff     =     160.0000  Ry
     scf convergence threshold =      1.0E-08
     mixing beta               =       0.7000
     number of iterations used =            8  plain     mixing
     Exchange-correlation=  SLA  PZ   NOGX NOGC
                           (   1   1   0   0   0   0   0)

     celldm(1)=  10.263102  celldm(2)=   0.000000  celldm(3)=   0.000000
     celldm(4)=   0.000000  celldm(5)=   0.000000  celldm(6)=   0.000000

     crystal axes: (cart. coord. in units of alat)
               a(1) = (  -0.500000   0.000000   0.500000 )  
               a(2) = (   0.000000   0.500000   0.500000 )  
               a(3) = (  -0.500000   0.500000   0.000000 )  

     reciprocal axes: (cart. coord. in units 2 pi/alat)
               b(1) = ( -1.000000 -1.000000  1.000000 )  
               b(2) = (  1.000000  1.000000  1.000000 )  
               b(3) = ( -1.000000  1.000000 -1.000000 )  


     PseudoPot. # 1 for Si read from file:
     /home/paolo/project_labqsm/pseudopotentials/Si.pz-vbc.UPF
     MD5 check sum: dc3b11d017da532b29132e08c0a6883c
     Pseudo is Norm-conserving, Zval =  4.0
     Generated by new atomic code, or converted to UPF format
     Using radial grid of  431 points,  2 beta functions with: 
                l(1) =   0
                l(2) =   1

     atomic species   valence    mass     pseudopotential
        Si             4.00    12.01100     Si( 1.00)

     48 Sym. Ops., with inversion, found (24 have fractional translation)



   Cartesian axes

     site n.     atom                  positions (alat units)
         1           Si  tau(   1) = (   0.0000000   0.0000000   0.0000000  )
         2           Si  tau(   2) = (   0.2500000   0.2500000   0.2500000  )

     number of k points=    16
                       cart. coord. in units 2pi/alat
        k(    1) = (   0.0000000   0.0000000   0.0000000), wk =   0.0092593
        k(    2) = (  -0.1666667   0.1666667  -0.1666667), wk =   0.0740741
        k(    3) = (  -0.3333333   0.3333333  -0.3333333), wk =   0.0740741
        k(    4) = (   0.5000000  -0.5000000   0.5000000), wk =   0.0370370
        k(    5) = (   0.0000000   0.3333333   0.0000000), wk =   0.0555556
        k(    6) = (  -0.1666667   0.5000000  -0.1666667), wk =   0.2222222
        k(    7) = (   0.6666667  -0.3333333   0.6666667), wk =   0.2222222
        k(    8) = (   0.5000000  -0.1666667   0.5000000), wk =   0.2222222
        k(    9) = (   0.3333333   0.0000000   0.3333333), wk =   0.1111111
        k(   10) = (   0.0000000   0.6666667   0.0000000), wk =   0.0555556
        k(   11) = (   0.8333333  -0.1666667   0.8333333), wk =   0.2222222
        k(   12) = (   0.6666667  -0.0000000   0.6666667), wk =   0.1111111
        k(   13) = (   0.0000000  -1.0000000   0.0000000), wk =   0.0277778
        k(   14) = (   0.6666667  -0.3333333   1.0000000), wk =   0.2222222
        k(   15) = (   0.5000000  -0.1666667   0.8333333), wk =   0.2222222
        k(   16) = (  -0.3333333  -1.0000000   0.0000000), wk =   0.1111111

     Dense  grid:     9257 G-vectors     FFT dimensions: (  32,  32,  32)

     Estimated max dynamical RAM per process >       7.81 MB

     Initial potential from superposition of free atoms

     starting charge       7.9990, renormalised to       8.0000
     Starting wfcs are    8 randomized atomic wfcs

     total cpu time spent up to now is        0.1 secs

     Self-consistent Calculation

     iteration #  1     ecut=    40.00 Ry     beta= 0.70
     Davidson diagonalization with overlap
     ethr =  1.00E-02,  avg # of iterations =  2.0

     Threshold (ethr) on eigenvalues was too large:
     Diagonalizing with lowered threshold

     Davidson diagonalization with overlap
     ethr =  6.82E-04,  avg # of iterations =  1.2

     total cpu time spent up to now is        0.3 secs

     total energy              =     -15.84770731 Ry
     estimated scf accuracy    <       0.06017077 Ry

     iteration #  2     ecut=    40.00 Ry     beta= 0.70
     Davidson diagonalization with overlap
     ethr =  7.52E-04,  avg # of iterations =  1.0

     total cpu time spent up to now is        0.4 secs

     total energy              =     -15.85077180 Ry
     estimated scf accuracy    <       0.00224221 Ry

     iteration #  3     ecut=    40.00 Ry     beta= 0.70
     Davidson diagonalization with overlap
     ethr =  2.80E-05,  avg # of iterations =  2.1

     total cpu time spent up to now is        0.5 secs

     total energy              =     -15.85120155 Ry
     estimated scf accuracy    <       0.00006797 Ry

     iteration #  4     ecut=    40.00 Ry     beta= 0.70
     Davidson diagonalization with overlap
     ethr =  8.50E-07,  avg # of iterations =  2.8

     total cpu time spent up to now is        0.7 secs

     total energy              =     -15.85123130 Ry
     estimated scf accuracy    <       0.00000144 Ry

     iteration #  5     ecut=    40.00 Ry     beta= 0.70
     Davidson diagonalization with overlap
     ethr =  1.80E-08,  avg # of iterations =  4.2

     total cpu time spent up to now is        0.8 secs

     total energy              =     -15.85123280 Ry
     estimated scf accuracy    <       0.00000015 Ry

     iteration #  6     ecut=    40.00 Ry     beta= 0.70
     Davidson diagonalization with overlap
     ethr =  1.93E-09,  avg # of iterations =  2.4

     total cpu time spent up to now is        0.9 secs

     total energy              =     -15.85123285 Ry
     estimated scf accuracy    <       0.00000002 Ry

     iteration #  7     ecut=    40.00 Ry     beta= 0.70
     Davidson diagonalization with overlap
     ethr =  2.45E-10,  avg # of iterations =  2.8

     total cpu time spent up to now is        1.1 secs

     End of self-consistent calculation

          k = 0.0000 0.0000 0.0000 (  1139 PWs)   bands (ev):

    -5.8825   6.0437   6.0437   6.0437

          k =-0.1667 0.1667-0.1667 (  1167 PWs)   bands (ev):

    -5.5211   3.6672   5.5938   5.5938

          k =-0.3333 0.3333-0.3333 (  1149 PWs)   bands (ev):

    -4.5028   0.7147   5.0439   5.0439

          k = 0.5000-0.5000 0.5000 (  1158 PWs)   bands (ev):

    -3.5380  -0.9306   4.8457   4.8457

          k = 0.0000 0.3333 0.0000 (  1162 PWs)   bands (ev):

    -5.3983   4.0184   4.8504   4.8504

          k =-0.1667 0.5000-0.1667 (  1151 PWs)   bands (ev):

    -4.5818   1.6232   4.0472   4.2965

          k = 0.6667-0.3333 0.6667 (  1153 PWs)   bands (ev):

    -3.3824  -0.5547   3.2612   4.2666

          k = 0.5000-0.1667 0.5000 (  1156 PWs)   bands (ev):

    -3.7710   0.0487   2.9877   4.7468

          k = 0.3333 0.0000 0.3333 (  1147 PWs)   bands (ev):

    -4.9322   2.3424   3.6205   5.4799

          k = 0.0000 0.6667 0.0000 (  1150 PWs)   bands (ev):

    -3.9775   1.0641   3.6232   3.6232

          k = 0.8333-0.1667 0.8333 (  1149 PWs)   bands (ev):

    -2.8107  -0.4866   2.3934   3.4863

          k = 0.6667-0.0000 0.6667 (  1141 PWs)   bands (ev):

    -2.6085  -0.6958   1.6034   3.9302

          k = 0.0000-1.0000 0.0000 (  1162 PWs)   bands (ev):

    -1.7369  -1.7369   3.1871   3.1871

          k = 0.6667-0.3333 1.0000 (  1151 PWs)   bands (ev):

    -3.5896   0.4301   2.4566   3.7416

          k = 0.5000-0.1667 0.8333 (  1152 PWs)   bands (ev):

    -2.5978  -0.7736   2.0153   3.2704

          k =-0.3333-1.0000 0.0000 (  1154 PWs)   bands (ev):

    -1.6127  -1.6127   2.3796   2.3796

     highest occupied level (ev):     6.0437

!    total energy              =     -15.85123285 Ry
     estimated scf accuracy    <          1.6E-11 Ry

     The total energy is the sum of the following terms:
     one-electron contribution =       4.64501486 Ry
     hartree contribution      =       1.09825980 Ry
     xc contribution           =      -4.79865570 Ry
     ewald contribution        =     -16.79585182 Ry

     convergence has been achieved in   7 iterations

     Writing all to output data dir ./SCRATCH/silicon.save/

     init_run     :      0.09s CPU      0.10s WALL (       1 calls)
     electrons    :      0.86s CPU      0.95s WALL (       1 calls)

     Called by init_run:
     wfcinit      :      0.08s CPU      0.07s WALL (       1 calls)
     potinit      :      0.00s CPU      0.01s WALL (       1 calls)
     hinit0       :      0.02s CPU      0.01s WALL (       1 calls)

     Called by electrons:
     c_bands      :      0.70s CPU      0.79s WALL (       8 calls)
     sum_band     :      0.12s CPU      0.14s WALL (       8 calls)
     v_of_rho     :      0.03s CPU      0.01s WALL (       8 calls)
     mix_rho      :      0.00s CPU      0.01s WALL (       8 calls)

     Called by c_bands:
     init_us_2    :      0.03s CPU      0.03s WALL (     272 calls)
     init_us_2:cp :      0.03s CPU      0.03s WALL (     272 calls)
     cegterg      :      0.69s CPU      0.75s WALL (     128 calls)

     Called by *egterg:
     cdiaghg      :      0.03s CPU      0.01s WALL (     409 calls)
     h_psi        :      0.62s CPU      0.75s WALL (     441 calls)
     g_psi        :      0.02s CPU      0.00s WALL (     297 calls)

     Called by h_psi:
     h_psi:calbec :      0.02s CPU      0.02s WALL (     441 calls)
     vloc_psi     :      0.59s CPU      0.71s WALL (     441 calls)
     add_vuspsi   :      0.02s CPU      0.01s WALL (     441 calls)

     General routines
     calbec       :      0.02s CPU      0.02s WALL (     441 calls)
     fft          :      0.00s CPU      0.01s WALL (      24 calls)
     ffts         :      0.00s CPU      0.00s WALL (       8 calls)
     fftw         :      0.67s CPU      0.74s WALL (    3700 calls)


     PWSCF        :      0.97s CPU      1.08s WALL


   This run was terminated on:  11:56:50  12May2024            

=------------------------------------------------------------------------------=
   JOB DONE.
=------------------------------------------------------------------------------=
