
     Program PWSCF v.7.2 starts on 12May2024 at 11:56:52 

     This program is part of the open-source Quantum ESPRESSO suite
     for quantum simulation of materials; please cite
         "P. Giannozzi et al., J. Phys.:Condens. Matter 21 395502 (2009);
         "P. Giannozzi et al., J. Phys.:Condens. Matter 29 465901 (2017);
         "P. Giannozzi et al., J. Chem. Phys. 152 154105 (2020);
          URL http://www.quantum-espresso.org", 
     in publications or presentations arising from this work. More details at
     http://www.quantum-espresso.org/quote

     Serial version
     8652 MiB available memory on the printing compute node when the environment starts

     Waiting for input...
     Reading input from standard input

     Current dimensions of program PWSCF are:
     Max number of different atomic species (ntypx) = 10
     Max number of k-points (npk) =  40000
     Max angular momentum in pseudopotentials (lmaxx) =  4


     G-vector sticks info
     --------------------
     sticks:   dense  smooth     PW     G-vecs:    dense   smooth      PW
     Sum         583     583    187                 9257     9257    1639

     Using Slab Decomposition



     bravais-lattice index     =            2
     lattice parameter (alat)  =      10.2631  a.u.
     unit-cell volume          =     270.2564 (a.u.)^3
     number of atoms/cell      =            2
     number of atomic types    =            1
     number of electrons       =         8.00
     number of Kohn-Sham states=            4
     kinetic-energy cutoff     =      40.0000  Ry
     charge density cutoff     =     160.0000  Ry
     scf convergence threshold =      1.0E-08
     mixing beta               =       0.7000
     number of iterations used =            8  plain     mixing
     Exchange-correlation=  SLA  PZ   NOGX NOGC
                           (   1   1   0   0   0   0   0)

     celldm(1)=  10.263102  celldm(2)=   0.000000  celldm(3)=   0.000000
     celldm(4)=   0.000000  celldm(5)=   0.000000  celldm(6)=   0.000000

     crystal axes: (cart. coord. in units of alat)
               a(1) = (  -0.500000   0.000000   0.500000 )  
               a(2) = (   0.000000   0.500000   0.500000 )  
               a(3) = (  -0.500000   0.500000   0.000000 )  

     reciprocal axes: (cart. coord. in units 2 pi/alat)
               b(1) = ( -1.000000 -1.000000  1.000000 )  
               b(2) = (  1.000000  1.000000  1.000000 )  
               b(3) = ( -1.000000  1.000000 -1.000000 )  


     PseudoPot. # 1 for Si read from file:
     /home/paolo/project_labqsm/pseudopotentials/Si.pz-vbc.UPF
     MD5 check sum: dc3b11d017da532b29132e08c0a6883c
     Pseudo is Norm-conserving, Zval =  4.0
     Generated by new atomic code, or converted to UPF format
     Using radial grid of  431 points,  2 beta functions with: 
                l(1) =   0
                l(2) =   1

     atomic species   valence    mass     pseudopotential
        Si             4.00    12.01100     Si( 1.00)

     48 Sym. Ops., with inversion, found (24 have fractional translation)



   Cartesian axes

     site n.     atom                  positions (alat units)
         1           Si  tau(   1) = (   0.0000000   0.0000000   0.0000000  )
         2           Si  tau(   2) = (   0.2500000   0.2500000   0.2500000  )

     number of k points=    72
                       cart. coord. in units 2pi/alat
        k(    1) = (   0.0000000   0.0000000   0.0000000), wk =   0.0011574
        k(    2) = (  -0.0833333   0.0833333  -0.0833333), wk =   0.0092593
        k(    3) = (  -0.1666667   0.1666667  -0.1666667), wk =   0.0092593
        k(    4) = (  -0.2500000   0.2500000  -0.2500000), wk =   0.0092593
        k(    5) = (  -0.3333333   0.3333333  -0.3333333), wk =   0.0092593
        k(    6) = (  -0.4166667   0.4166667  -0.4166667), wk =   0.0092593
        k(    7) = (   0.5000000  -0.5000000   0.5000000), wk =   0.0046296
        k(    8) = (   0.0000000   0.1666667   0.0000000), wk =   0.0069444
        k(    9) = (  -0.0833333   0.2500000  -0.0833333), wk =   0.0277778
        k(   10) = (  -0.1666667   0.3333333  -0.1666667), wk =   0.0277778
        k(   11) = (  -0.2500000   0.4166667  -0.2500000), wk =   0.0277778
        k(   12) = (  -0.3333333   0.5000000  -0.3333333), wk =   0.0277778
        k(   13) = (   0.5833333  -0.4166667   0.5833333), wk =   0.0277778
        k(   14) = (   0.5000000  -0.3333333   0.5000000), wk =   0.0277778
        k(   15) = (   0.4166667  -0.2500000   0.4166667), wk =   0.0277778
        k(   16) = (   0.3333333  -0.1666667   0.3333333), wk =   0.0277778
        k(   17) = (   0.2500000  -0.0833333   0.2500000), wk =   0.0277778
        k(   18) = (   0.1666667  -0.0000000   0.1666667), wk =   0.0138889
        k(   19) = (   0.0000000   0.3333333   0.0000000), wk =   0.0069444
        k(   20) = (  -0.0833333   0.4166667  -0.0833333), wk =   0.0277778
        k(   21) = (  -0.1666667   0.5000000  -0.1666667), wk =   0.0277778
        k(   22) = (  -0.2500000   0.5833333  -0.2500000), wk =   0.0277778
        k(   23) = (   0.6666667  -0.3333333   0.6666667), wk =   0.0277778
        k(   24) = (   0.5833333  -0.2500000   0.5833333), wk =   0.0277778
        k(   25) = (   0.5000000  -0.1666667   0.5000000), wk =   0.0277778
        k(   26) = (   0.4166667  -0.0833333   0.4166667), wk =   0.0277778
        k(   27) = (   0.3333333   0.0000000   0.3333333), wk =   0.0138889
        k(   28) = (   0.0000000   0.5000000   0.0000000), wk =   0.0069444
        k(   29) = (  -0.0833333   0.5833333  -0.0833333), wk =   0.0277778
        k(   30) = (  -0.1666667   0.6666667  -0.1666667), wk =   0.0277778
        k(   31) = (   0.7500000  -0.2500000   0.7500000), wk =   0.0277778
        k(   32) = (   0.6666667  -0.1666667   0.6666667), wk =   0.0277778
        k(   33) = (   0.5833333  -0.0833333   0.5833333), wk =   0.0277778
        k(   34) = (   0.5000000   0.0000000   0.5000000), wk =   0.0138889
        k(   35) = (   0.0000000   0.6666667   0.0000000), wk =   0.0069444
        k(   36) = (  -0.0833333   0.7500000  -0.0833333), wk =   0.0277778
        k(   37) = (   0.8333333  -0.1666667   0.8333333), wk =   0.0277778
        k(   38) = (   0.7500000  -0.0833333   0.7500000), wk =   0.0277778
        k(   39) = (   0.6666667  -0.0000000   0.6666667), wk =   0.0138889
        k(   40) = (   0.0000000   0.8333333   0.0000000), wk =   0.0069444
        k(   41) = (   0.9166667  -0.0833333   0.9166667), wk =   0.0277778
        k(   42) = (   0.8333333   0.0000000   0.8333333), wk =   0.0138889
        k(   43) = (   0.0000000  -1.0000000   0.0000000), wk =   0.0034722
        k(   44) = (  -0.1666667   0.3333333   0.0000000), wk =   0.0277778
        k(   45) = (  -0.2500000   0.4166667  -0.0833333), wk =   0.0555556
        k(   46) = (  -0.3333333   0.5000000  -0.1666667), wk =   0.0555556
        k(   47) = (   0.5833333  -0.4166667   0.7500000), wk =   0.0555556
        k(   48) = (   0.5000000  -0.3333333   0.6666667), wk =   0.0277778
        k(   49) = (  -0.1666667   0.5000000   0.0000000), wk =   0.0277778
        k(   50) = (  -0.2500000   0.5833333  -0.0833333), wk =   0.0555556
        k(   51) = (   0.6666667  -0.3333333   0.8333333), wk =   0.0555556
        k(   52) = (   0.5833333  -0.2500000   0.7500000), wk =   0.0555556
        k(   53) = (   0.5000000  -0.1666667   0.6666667), wk =   0.0555556
        k(   54) = (   0.4166667  -0.0833333   0.5833333), wk =   0.0555556
        k(   55) = (   0.3333333   0.0000000   0.5000000), wk =   0.0277778
        k(   56) = (  -0.1666667   0.6666667  -0.0000000), wk =   0.0277778
        k(   57) = (   0.7500000  -0.2500000   0.9166667), wk =   0.0555556
        k(   58) = (   0.6666667  -0.1666667   0.8333333), wk =   0.0555556
        k(   59) = (   0.5833333  -0.0833333   0.7500000), wk =   0.0555556
        k(   60) = (   0.5000000   0.0000000   0.6666667), wk =   0.0277778
        k(   61) = (   0.8333333  -0.1666667   1.0000000), wk =   0.0277778
        k(   62) = (   0.7500000  -0.0833333   0.9166667), wk =   0.0555556
        k(   63) = (   0.6666667   0.0000000   0.8333333), wk =   0.0277778
        k(   64) = (  -0.1666667  -1.0000000  -0.0000000), wk =   0.0138889
        k(   65) = (   0.6666667  -0.3333333   1.0000000), wk =   0.0277778
        k(   66) = (   0.5833333  -0.2500000   0.9166667), wk =   0.0555556
        k(   67) = (   0.5000000  -0.1666667   0.8333333), wk =   0.0277778
        k(   68) = (   0.6666667  -0.1666667   1.0000000), wk =   0.0277778
        k(   69) = (   0.5833333  -0.0833333   0.9166667), wk =   0.0555556
        k(   70) = (   0.5000000   0.0000000   0.8333333), wk =   0.0277778
        k(   71) = (  -0.3333333  -1.0000000   0.0000000), wk =   0.0138889
        k(   72) = (  -0.5000000  -1.0000000   0.0000000), wk =   0.0069444

     Dense  grid:     9257 G-vectors     FFT dimensions: (  32,  32,  32)

     Estimated max dynamical RAM per process >      11.76 MB

     Initial potential from superposition of free atoms

     starting charge       7.9990, renormalised to       8.0000
     Starting wfcs are    8 randomized atomic wfcs

     total cpu time spent up to now is        0.4 secs

     Self-consistent Calculation

     iteration #  1     ecut=    40.00 Ry     beta= 0.70
     Davidson diagonalization with overlap
     ethr =  1.00E-02,  avg # of iterations =  2.0

     Threshold (ethr) on eigenvalues was too large:
     Diagonalizing with lowered threshold

     Davidson diagonalization with overlap
     ethr =  6.70E-04,  avg # of iterations =  1.1

     total cpu time spent up to now is        1.3 secs

     total energy              =     -15.84946696 Ry
     estimated scf accuracy    <       0.05915184 Ry

     iteration #  2     ecut=    40.00 Ry     beta= 0.70
     Davidson diagonalization with overlap
     ethr =  7.39E-04,  avg # of iterations =  1.0

     total cpu time spent up to now is        1.7 secs

     total energy              =     -15.85252491 Ry
     estimated scf accuracy    <       0.00219781 Ry

     iteration #  3     ecut=    40.00 Ry     beta= 0.70
     Davidson diagonalization with overlap
     ethr =  2.75E-05,  avg # of iterations =  2.4

     total cpu time spent up to now is        2.2 secs

     total energy              =     -15.85299859 Ry
     estimated scf accuracy    <       0.00007151 Ry

     iteration #  4     ecut=    40.00 Ry     beta= 0.70
     Davidson diagonalization with overlap
     ethr =  8.94E-07,  avg # of iterations =  2.9

     total cpu time spent up to now is        2.8 secs

     total energy              =     -15.85303042 Ry
     estimated scf accuracy    <       0.00000217 Ry

     iteration #  5     ecut=    40.00 Ry     beta= 0.70
     Davidson diagonalization with overlap
     ethr =  2.71E-08,  avg # of iterations =  4.0

     total cpu time spent up to now is        3.5 secs

     total energy              =     -15.85303194 Ry
     estimated scf accuracy    <       0.00000009 Ry

     iteration #  6     ecut=    40.00 Ry     beta= 0.70
     Davidson diagonalization with overlap
     ethr =  1.08E-09,  avg # of iterations =  3.5

     total cpu time spent up to now is        4.1 secs

     End of self-consistent calculation

          k = 0.0000 0.0000 0.0000 (  1139 PWs)   bands (ev):

    -5.8886   6.0352   6.0352   6.0352

          k =-0.0833 0.0833-0.0833 (  1185 PWs)   bands (ev):

    -5.7977   5.1784   5.8919   5.8919

          k =-0.1667 0.1667-0.1667 (  1167 PWs)   bands (ev):

    -5.5273   3.6601   5.5859   5.5859

          k =-0.2500 0.2500-0.2500 (  1164 PWs)   bands (ev):

    -5.0883   2.1161   5.2768   5.2768

          k =-0.3333 0.3333-0.3333 (  1149 PWs)   bands (ev):

    -4.5093   0.7084   5.0363   5.0363

          k =-0.4167 0.4167-0.4167 (  1155 PWs)   bands (ev):

    -3.8842  -0.4257   4.8879   4.8879

          k = 0.5000-0.5000 0.5000 (  1158 PWs)   bands (ev):

    -3.5451  -0.9361   4.8381   4.8381

          k = 0.0000 0.1667 0.0000 (  1179 PWs)   bands (ev):

    -5.7673   5.3441   5.6060   5.6060

          k =-0.0833 0.2500-0.0833 (  1164 PWs)   bands (ev):

    -5.5562   4.1146   5.2424   5.4325

          k =-0.1667 0.3333-0.1667 (  1155 PWs)   bands (ev):

    -5.1719   2.6153   4.9293   5.1083

          k =-0.2500 0.4167-0.2500 (  1151 PWs)   bands (ev):

    -4.6346   1.1790   4.7193   4.7550

          k =-0.3333 0.5000-0.3333 (  1153 PWs)   bands (ev):

    -4.0056  -0.0543   4.4586   4.6295

          k = 0.5833-0.4167 0.5833 (  1160 PWs)   bands (ev):

    -3.5088  -0.8302   4.2533   4.6606

          k = 0.5000-0.3333 0.5000 (  1156 PWs)   bands (ev):

    -3.6315  -0.6505   4.1576   4.8039

          k = 0.4167-0.2500 0.4167 (  1147 PWs)   bands (ev):

    -4.2189   0.3273   4.1844   5.0437

          k = 0.3333-0.1667 0.3333 (  1151 PWs)   bands (ev):

    -4.8294   1.6438   4.3438   5.3538

          k = 0.2500-0.0833 0.2500 (  1160 PWs)   bands (ev):

    -5.3191   3.1018   4.6476   5.6828

          k = 0.1667-0.0000 0.1667 (  1171 PWs)   bands (ev):

    -5.6467   4.4518   5.1707   5.9177

          k = 0.0000 0.3333 0.0000 (  1162 PWs)   bands (ev):

    -5.4046   4.0100   4.8433   4.8433

          k =-0.0833 0.4167-0.0833 (  1158 PWs)   bands (ev):

    -5.0772   2.9263   4.4948   4.5086

          k =-0.1667 0.5000-0.1667 (  1151 PWs)   bands (ev):

    -4.5883   1.6160   4.0404   4.2897

          k =-0.2500 0.5833-0.2500 (  1152 PWs)   bands (ev):

    -3.9782   0.3790   3.6003   4.2056

          k = 0.6667-0.3333 0.6667 (  1153 PWs)   bands (ev):

    -3.3894  -0.5608   3.2549   4.2596

          k = 0.5833-0.2500 0.5833 (  1157 PWs)   bands (ev):

    -3.2730  -0.7226   3.0398   4.4439

          k = 0.5000-0.1667 0.5000 (  1156 PWs)   bands (ev):

    -3.7778   0.0423   2.9817   4.7394

          k = 0.4167-0.0833 0.4167 (  1156 PWs)   bands (ev):

    -4.4054   1.1932   3.1241   5.1078

          k = 0.3333 0.0000 0.3333 (  1147 PWs)   bands (ev):

    -4.9385   2.3350   3.6146   5.4718

          k = 0.0000 0.5000 0.0000 (  1174 PWs)   bands (ev):

    -4.8067   2.5422   4.1456   4.1456

          k =-0.0833 0.5833-0.0833 (  1154 PWs)   bands (ev):

    -4.3697   1.6355   3.6763   3.8986

          k =-0.1667 0.6667-0.1667 (  1153 PWs)   bands (ev):

    -3.7930   0.6067   3.0394   3.7912

          k = 0.7500-0.2500 0.7500 (  1156 PWs)   bands (ev):

    -3.1652  -0.3232   2.4900   3.8300

          k = 0.6667-0.1667 0.6667 (  1151 PWs)   bands (ev):

    -2.8367  -0.7423   2.1247   4.0105

          k = 0.5833-0.0833 0.5833 (  1152 PWs)   bands (ev):

    -3.2161  -0.2440   2.0025   4.3160

          k = 0.5000 0.0000 0.5000 (  1159 PWs)   bands (ev):

    -3.8415   0.5807   2.2663   4.7088

          k = 0.0000 0.6667 0.0000 (  1150 PWs)   bands (ev):

    -3.9841   1.0563   3.6167   3.6167

          k =-0.0833 0.7500-0.0833 (  1152 PWs)   bands (ev):

    -3.4489   0.2731   3.1249   3.4737

          k = 0.8333-0.1667 0.8333 (  1149 PWs)   bands (ev):

    -2.8177  -0.4941   2.3882   3.4799

          k = 0.7500-0.0833 0.7500 (  1149 PWs)   bands (ev):

    -2.3435  -0.9879   1.8030   3.6341

          k = 0.6667-0.0000 0.6667 (  1141 PWs)   bands (ev):

    -2.6158  -0.7031   1.5989   3.9235

          k = 0.0000 0.8333 0.0000 (  1162 PWs)   bands (ev):

    -2.9545  -0.3908   3.2907   3.2907

          k = 0.9167-0.0833 0.9167 (  1150 PWs)   bands (ev):

    -2.3402  -1.0772   2.8525   3.2569

          k = 0.8333 0.0000 0.8333 (  1154 PWs)   bands (ev):

    -1.8796  -1.4828   2.1722   3.3744

          k = 0.0000-1.0000 0.0000 (  1162 PWs)   bands (ev):

    -1.7441  -1.7441   3.1808   3.1808

          k =-0.1667 0.3333 0.0000 (  1157 PWs)   bands (ev):

    -5.2873   3.3213   4.3980   5.3307

          k =-0.2500 0.4167-0.0833 (  1148 PWs)   bands (ev):

    -4.8503   2.0820   3.8647   5.0552

          k =-0.3333 0.5000-0.1667 (  1155 PWs)   bands (ev):

    -4.2734   0.7784   3.5962   4.7270

          k = 0.5833-0.4167 0.7500 (  1151 PWs)   bands (ev):

    -3.6473  -0.3160   3.4698   4.4797

          k = 0.5000-0.3333 0.6667 (  1152 PWs)   bands (ev):

    -3.3041  -0.8192   3.4347   4.3876

          k =-0.1667 0.5000 0.0000 (  1156 PWs)   bands (ev):

    -4.6958   2.1379   3.7003   4.4091

          k =-0.2500 0.5833-0.0833 (  1152 PWs)   bands (ev):

    -4.1621   1.0887   3.1608   4.1185

          k = 0.6667-0.3333 0.8333 (  1153 PWs)   bands (ev):

    -3.5337   0.0306   2.8045   3.9061

          k = 0.5833-0.2500 0.7500 (  1152 PWs)   bands (ev):

    -3.0314  -0.6819   2.5584   3.8877

          k = 0.5000-0.1667 0.6667 (  1155 PWs)   bands (ev):

    -3.1687  -0.4928   2.4384   4.0613

          k = 0.4167-0.0833 0.5833 (  1154 PWs)   bands (ev):

    -3.7635   0.3901   2.5099   4.3798

          k = 0.3333 0.0000 0.5000 (  1157 PWs)   bands (ev):

    -4.3683   1.3703   2.9249   4.7632

          k =-0.1667 0.6667-0.0000 (  1154 PWs)   bands (ev):

    -3.8849   0.8810   3.1888   3.6204

          k = 0.7500-0.2500 0.9167 (  1156 PWs)   bands (ev):

    -3.2775   0.0472   2.5954   3.4011

          k = 0.6667-0.1667 0.8333 (  1154 PWs)   bands (ev):

    -2.6839  -0.6703   2.0698   3.4090

          k = 0.5833-0.0833 0.7500 (  1157 PWs)   bands (ev):

    -2.6105  -0.7429   1.7779   3.6087

          k = 0.5000 0.0000 0.6667 (  1161 PWs)   bands (ev):

    -3.1515  -0.1513   1.8646   3.9556

          k = 0.8333-0.1667 1.0000 (  1160 PWs)   bands (ev):

    -2.8761  -0.4262   2.9039   3.1018

          k = 0.7500-0.0833 0.9167 (  1153 PWs)   bands (ev):

    -2.2447  -1.0676   2.2666   3.0574

          k = 0.6667 0.0000 0.8333 (  1151 PWs)   bands (ev):

    -2.0849  -1.1839   1.7621   3.2556

          k =-0.1667-1.0000-0.0000 (  1148 PWs)   bands (ev):

    -1.7047  -1.7047   2.8685   2.8685

          k = 0.6667-0.3333 1.0000 (  1151 PWs)   bands (ev):

    -3.5964   0.4225   2.4514   3.7354

          k = 0.5833-0.2500 0.9167 (  1152 PWs)   bands (ev):

    -2.9692  -0.3478   2.1028   3.3953

          k = 0.5000-0.1667 0.8333 (  1152 PWs)   bands (ev):

    -2.6051  -0.7806   2.0102   3.2647

          k = 0.6667-0.1667 1.0000 (  1155 PWs)   bands (ev):

    -2.6594  -0.5690   2.2508   2.8735

          k = 0.5833-0.0833 0.9167 (  1158 PWs)   bands (ev):

    -2.1330  -1.0754   1.9308   2.7178

          k = 0.5000 0.0000 0.8333 (  1153 PWs)   bands (ev):

    -2.3643  -0.8467   1.8047   2.9448

          k =-0.3333-1.0000 0.0000 (  1154 PWs)   bands (ev):

    -1.6201  -1.6201   2.3745   2.3745

          k =-0.5000-1.0000 0.0000 (  1144 PWs)   bands (ev):

    -1.5743  -1.5743   2.1633   2.1633

     highest occupied level (ev):     6.0352

!    total energy              =     -15.85303199 Ry
     estimated scf accuracy    <          9.9E-09 Ry

     The total energy is the sum of the following terms:
     one-electron contribution =       4.64573726 Ry
     hartree contribution      =       1.09395038 Ry
     xc contribution           =      -4.79686781 Ry
     ewald contribution        =     -16.79585182 Ry

     convergence has been achieved in   6 iterations

     Writing all to output data dir ./SCRATCH/silicon.save/

     init_run     :      0.38s CPU      0.37s WALL (       1 calls)
     electrons    :      3.64s CPU      3.75s WALL (       1 calls)

     Called by init_run:
     wfcinit      :      0.34s CPU      0.34s WALL (       1 calls)
     potinit      :      0.00s CPU      0.01s WALL (       1 calls)
     hinit0       :      0.02s CPU      0.01s WALL (       1 calls)

     Called by electrons:
     c_bands      :      3.11s CPU      3.21s WALL (       7 calls)
     sum_band     :      0.53s CPU      0.52s WALL (       7 calls)
     v_of_rho     :      0.00s CPU      0.01s WALL (       7 calls)
     mix_rho      :      0.00s CPU      0.01s WALL (       7 calls)

     Called by c_bands:
     init_us_2    :      0.05s CPU      0.11s WALL (    1080 calls)
     init_us_2:cp :      0.05s CPU      0.10s WALL (    1080 calls)
     cegterg      :      3.03s CPU      3.07s WALL (     504 calls)

     Called by *egterg:
     cdiaghg      :      0.02s CPU      0.03s WALL (    1650 calls)
     h_psi        :      3.09s CPU      3.08s WALL (    1794 calls)
     g_psi        :      0.05s CPU      0.01s WALL (    1218 calls)

     Called by h_psi:
     h_psi:calbec :      0.08s CPU      0.07s WALL (    1794 calls)
     vloc_psi     :      2.95s CPU      2.92s WALL (    1794 calls)
     add_vuspsi   :      0.03s CPU      0.05s WALL (    1794 calls)

     General routines
     calbec       :      0.08s CPU      0.06s WALL (    1794 calls)
     fft          :      0.00s CPU      0.01s WALL (      21 calls)
     ffts         :      0.00s CPU      0.00s WALL (       7 calls)
     fftw         :      3.00s CPU      3.02s WALL (   14914 calls)


     PWSCF        :      4.03s CPU      4.16s WALL


   This run was terminated on:  11:56:56  12May2024            

=------------------------------------------------------------------------------=
   JOB DONE.
=------------------------------------------------------------------------------=
