
     Program PWSCF v.7.2 starts on  9Jun2024 at 12:56: 1 

     This program is part of the open-source Quantum ESPRESSO suite
     for quantum simulation of materials; please cite
         "P. Giannozzi et al., J. Phys.:Condens. Matter 21 395502 (2009);
         "P. Giannozzi et al., J. Phys.:Condens. Matter 29 465901 (2017);
         "P. Giannozzi et al., J. Chem. Phys. 152 154105 (2020);
          URL http://www.quantum-espresso.org", 
     in publications or presentations arising from this work. More details at
     http://www.quantum-espresso.org/quote

     Serial version
     8518 MiB available memory on the printing compute node when the environment starts

     Waiting for input...
     Reading input from standard input

     Current dimensions of program PWSCF are:
     Max number of different atomic species (ntypx) = 10
     Max number of k-points (npk) =  40000
     Max angular momentum in pseudopotentials (lmaxx) =  4


     G-vector sticks info
     --------------------
     sticks:   dense  smooth     PW     G-vecs:    dense   smooth      PW
     Sum        1039    1039    301                44855    44855    6851

     Using Slab Decomposition



     bravais-lattice index     =            4
     lattice parameter (alat)  =       7.3631  a.u.
     unit-cell volume          =     566.5376 (a.u.)^3
     number of atoms/cell      =            4
     number of atomic types    =            2
     number of electrons       =        52.00
     number of Kohn-Sham states=           26
     kinetic-energy cutoff     =      70.0000  Ry
     charge density cutoff     =     280.0000  Ry
     scf convergence threshold =      1.0E-08
     mixing beta               =       0.7000
     number of iterations used =            8  plain     mixing
     Exchange-correlation= PBE
                           (   1   4   3   4   0   0   0)

     celldm(1)=   7.363128  celldm(2)=   0.000000  celldm(3)=   1.638743
     celldm(4)=   0.000000  celldm(5)=   0.000000  celldm(6)=   0.000000

     crystal axes: (cart. coord. in units of alat)
               a(1) = (   1.000000   0.000000   0.000000 )  
               a(2) = (  -0.500000   0.866025   0.000000 )  
               a(3) = (   0.000000   0.000000   1.638743 )  

     reciprocal axes: (cart. coord. in units 2 pi/alat)
               b(1) = (  1.000000  0.577350 -0.000000 )  
               b(2) = (  0.000000  1.154701  0.000000 )  
               b(3) = (  0.000000 -0.000000  0.610224 )  


     PseudoPot. # 1 for Zn read from file:
     /home/paolo/project_labqsm/pseudopotentials/Zn_ONCV_PBE-1.2.upf
     MD5 check sum: 732f41c0cd6489a4b50a33b4ec99a2d3
     Pseudo is Norm-conserving, Zval = 20.0
     Generated using ONCVPSP code by D. R. Hamann
     Using radial grid of  602 points,  6 beta functions with: 
                l(1) =   0
                l(2) =   0
                l(3) =   1
                l(4) =   1
                l(5) =   2
                l(6) =   2

     PseudoPot. # 2 for S  read from file:
     /home/paolo/project_labqsm/pseudopotentials/S_ONCV_PBE-1.2.upf
     MD5 check sum: f9d020296ee6110346977bfd66d424f6
     Pseudo is Norm-conserving, Zval =  6.0
     Generated using ONCVPSP code by D. R. Hamann
     Using radial grid of  602 points,  4 beta functions with: 
                l(1) =   0
                l(2) =   0
                l(3) =   1
                l(4) =   1

     atomic species   valence    mass     pseudopotential
        Zn            20.00    65.38000     Zn( 1.00)
        S              6.00    32.06000     S ( 1.00)

      6 Sym. Ops. (no inversion) found



   Cartesian axes

     site n.     atom                  positions (alat units)
         1           Zn  tau(   1) = (   0.0000000   0.0000000   0.0000000  )
         2           S   tau(   2) = (   0.0000000   0.0000000   0.3723729  )
         3           Zn  tau(   3) = (   0.0000000   0.5773503   0.5000000  )
         4           S   tau(   4) = (   0.0000000   0.5773503   0.8723729  )

     number of k points=    65
                       cart. coord. in units 2pi/alat
        k(    1) = (   0.0000000   0.0000000   0.0000000), wk =   0.0039062
        k(    2) = (   0.0000000   0.0000000   0.0762780), wk =   0.0078125
        k(    3) = (   0.0000000   0.0000000   0.1525559), wk =   0.0078125
        k(    4) = (   0.0000000   0.0000000   0.2288339), wk =   0.0078125
        k(    5) = (   0.0000000   0.0000000  -0.3051118), wk =   0.0039062
        k(    6) = (   0.0000000   0.1443376   0.0000000), wk =   0.0234375
        k(    7) = (   0.0000000   0.1443376   0.0762780), wk =   0.0234375
        k(    8) = (   0.0000000   0.1443376   0.1525559), wk =   0.0234375
        k(    9) = (   0.0000000   0.1443376   0.2288339), wk =   0.0234375
        k(   10) = (   0.0000000   0.1443376  -0.3051118), wk =   0.0234375
        k(   11) = (   0.0000000   0.2886751   0.0000000), wk =   0.0234375
        k(   12) = (   0.0000000   0.2886751   0.0762780), wk =   0.0234375
        k(   13) = (   0.0000000   0.2886751   0.1525559), wk =   0.0234375
        k(   14) = (   0.0000000   0.2886751   0.2288339), wk =   0.0234375
        k(   15) = (   0.0000000   0.2886751  -0.3051118), wk =   0.0234375
        k(   16) = (   0.0000000   0.4330127   0.0000000), wk =   0.0234375
        k(   17) = (   0.0000000   0.4330127   0.0762780), wk =   0.0234375
        k(   18) = (   0.0000000   0.4330127   0.1525559), wk =   0.0234375
        k(   19) = (   0.0000000   0.4330127   0.2288339), wk =   0.0234375
        k(   20) = (   0.0000000   0.4330127  -0.3051118), wk =   0.0234375
        k(   21) = (   0.0000000  -0.5773503   0.0000000), wk =   0.0117188
        k(   22) = (   0.0000000  -0.5773503   0.0762780), wk =   0.0234375
        k(   23) = (   0.0000000  -0.5773503   0.1525559), wk =   0.0234375
        k(   24) = (   0.0000000  -0.5773503   0.2288339), wk =   0.0234375
        k(   25) = (   0.0000000  -0.5773503  -0.3051118), wk =   0.0117188
        k(   26) = (   0.1250000   0.2165064   0.0000000), wk =   0.0234375
        k(   27) = (   0.1250000   0.2165064   0.0762780), wk =   0.0468750
        k(   28) = (   0.1250000   0.2165064   0.1525559), wk =   0.0468750
        k(   29) = (   0.1250000   0.2165064   0.2288339), wk =   0.0468750
        k(   30) = (   0.1250000   0.2165064  -0.3051118), wk =   0.0234375
        k(   31) = (   0.1250000   0.3608439   0.0000000), wk =   0.0468750
        k(   32) = (   0.1250000   0.3608439   0.0762780), wk =   0.0468750
        k(   33) = (   0.1250000   0.3608439   0.1525559), wk =   0.0468750
        k(   34) = (   0.1250000   0.3608439   0.2288339), wk =   0.0468750
        k(   35) = (   0.1250000   0.3608439  -0.3051118), wk =   0.0468750
        k(   36) = (   0.1250000   0.5051815   0.0000000), wk =   0.0468750
        k(   37) = (   0.1250000   0.5051815   0.0762780), wk =   0.0468750
        k(   38) = (   0.1250000   0.5051815   0.1525559), wk =   0.0468750
        k(   39) = (   0.1250000   0.5051815   0.2288339), wk =   0.0468750
        k(   40) = (   0.1250000   0.5051815  -0.3051118), wk =   0.0468750
        k(   41) = (   0.2500000   0.4330127   0.0000000), wk =   0.0234375
        k(   42) = (   0.2500000   0.4330127   0.0762780), wk =   0.0468750
        k(   43) = (   0.2500000   0.4330127   0.1525559), wk =   0.0468750
        k(   44) = (   0.2500000   0.4330127   0.2288339), wk =   0.0468750
        k(   45) = (   0.2500000   0.4330127  -0.3051118), wk =   0.0234375
        k(   46) = (   0.2500000   0.5773503   0.0000000), wk =   0.0234375
        k(   47) = (   0.2500000   0.5773503   0.0762780), wk =   0.0468750
        k(   48) = (   0.2500000   0.5773503   0.1525559), wk =   0.0468750
        k(   49) = (   0.2500000   0.5773503   0.2288339), wk =   0.0468750
        k(   50) = (   0.2500000   0.5773503  -0.3051118), wk =   0.0234375
        k(   51) = (   0.0000000  -0.1443376   0.0762780), wk =   0.0234375
        k(   52) = (   0.0000000  -0.1443376   0.1525559), wk =   0.0234375
        k(   53) = (   0.0000000  -0.1443376   0.2288339), wk =   0.0234375
        k(   54) = (   0.0000000  -0.2886751   0.0762780), wk =   0.0234375
        k(   55) = (   0.0000000  -0.2886751   0.1525559), wk =   0.0234375
        k(   56) = (   0.0000000  -0.2886751   0.2288339), wk =   0.0234375
        k(   57) = (   0.0000000  -0.4330127   0.0762780), wk =   0.0234375
        k(   58) = (   0.0000000  -0.4330127   0.1525559), wk =   0.0234375
        k(   59) = (   0.0000000  -0.4330127   0.2288339), wk =   0.0234375
        k(   60) = (  -0.1250000  -0.3608439   0.0762780), wk =   0.0468750
        k(   61) = (  -0.1250000  -0.3608439   0.1525559), wk =   0.0468750
        k(   62) = (  -0.1250000  -0.3608439   0.2288339), wk =   0.0468750
        k(   63) = (  -0.1250000  -0.5051815   0.0762780), wk =   0.0468750
        k(   64) = (  -0.1250000  -0.5051815   0.1525559), wk =   0.0468750
        k(   65) = (  -0.1250000  -0.5051815   0.2288339), wk =   0.0468750

     Dense  grid:    44855 G-vectors     FFT dimensions: (  40,  40,  72)

     Estimated max dynamical RAM per process >     190.81 MB

     Initial potential from superposition of free atoms

     starting charge      51.9339, renormalised to      52.0000
     Starting wfcs are random

     total cpu time spent up to now is        5.7 secs

     Self-consistent Calculation

     iteration #  1     ecut=    70.00 Ry     beta= 0.70
     Davidson diagonalization with overlap
     ethr =  1.00E-02,  avg # of iterations = 15.3

     total cpu time spent up to now is       81.0 secs

     total energy              =    -839.21415544 Ry
     estimated scf accuracy    <       1.25227113 Ry

     iteration #  2     ecut=    70.00 Ry     beta= 0.70
     Davidson diagonalization with overlap
     ethr =  2.41E-03,  avg # of iterations =  8.7

     total cpu time spent up to now is      103.8 secs

     total energy              =    -838.57995463 Ry
     estimated scf accuracy    <       7.51738145 Ry

     iteration #  3     ecut=    70.00 Ry     beta= 0.70
     Davidson diagonalization with overlap
     ethr =  2.41E-03,  avg # of iterations =  6.5

     total cpu time spent up to now is      124.0 secs

     total energy              =    -839.87367545 Ry
     estimated scf accuracy    <       0.36363855 Ry

     iteration #  4     ecut=    70.00 Ry     beta= 0.70
     Davidson diagonalization with overlap
     ethr =  6.99E-04,  avg # of iterations =  2.0

     total cpu time spent up to now is      139.4 secs

     total energy              =    -839.88858944 Ry
     estimated scf accuracy    <       0.08802567 Ry

     iteration #  5     ecut=    70.00 Ry     beta= 0.70
     Davidson diagonalization with overlap
     ethr =  1.69E-04,  avg # of iterations =  3.9

     total cpu time spent up to now is      154.8 secs

     total energy              =    -839.89598912 Ry
     estimated scf accuracy    <       0.01333152 Ry

     iteration #  6     ecut=    70.00 Ry     beta= 0.70
     Davidson diagonalization with overlap
     ethr =  2.56E-05,  avg # of iterations =  4.4

     total cpu time spent up to now is      170.7 secs

     total energy              =    -839.89793332 Ry
     estimated scf accuracy    <       0.00126516 Ry

     iteration #  7     ecut=    70.00 Ry     beta= 0.70
     Davidson diagonalization with overlap
     ethr =  2.43E-06,  avg # of iterations =  5.0

     total cpu time spent up to now is      189.2 secs

     total energy              =    -839.89829625 Ry
     estimated scf accuracy    <       0.00028111 Ry

     iteration #  8     ecut=    70.00 Ry     beta= 0.70
     Davidson diagonalization with overlap
     ethr =  5.41E-07,  avg # of iterations =  4.0

     total cpu time spent up to now is      205.0 secs

     total energy              =    -839.89833228 Ry
     estimated scf accuracy    <       0.00001419 Ry

     iteration #  9     ecut=    70.00 Ry     beta= 0.70
     Davidson diagonalization with overlap
     ethr =  2.73E-08,  avg # of iterations =  5.0

     total cpu time spent up to now is      223.3 secs

     total energy              =    -839.89833648 Ry
     estimated scf accuracy    <       0.00000052 Ry

     iteration # 10     ecut=    70.00 Ry     beta= 0.70
     Davidson diagonalization with overlap
     ethr =  1.01E-09,  avg # of iterations =  3.6

     total cpu time spent up to now is      240.9 secs

     total energy              =    -839.89833658 Ry
     estimated scf accuracy    <       0.00000005 Ry

     iteration # 11     ecut=    70.00 Ry     beta= 0.70
     Davidson diagonalization with overlap
     ethr =  8.89E-11,  avg # of iterations =  4.8

     total cpu time spent up to now is      259.8 secs

     End of self-consistent calculation

          k = 0.0000 0.0000 0.0000 (  5613 PWs)   bands (ev):

  -121.8168-120.8687 -77.1123 -76.1040 -75.6701 -75.6701 -74.8151 -74.8151
    -9.7940  -7.1580  -4.3496  -4.2826  -4.2826  -3.0914  -3.0914  -2.0932
    -2.0932  -1.7338  -1.6931  -1.6931   1.8476   4.0555   4.0555   6.3597
     7.4436   7.4436

          k = 0.0000 0.0000 0.0763 (  5612 PWs)   bands (ev):

  -121.8168-120.8687 -77.1123 -76.1040 -75.6701 -75.6701 -74.8151 -74.8151
    -9.7926  -7.1600  -4.3509  -4.2826  -4.2826  -3.0918  -3.0918  -2.0931
    -2.0931  -1.7549  -1.6930  -1.6930   1.9421   4.0589   4.0589   6.1046
     7.4357   7.4357

          k = 0.0000 0.0000 0.1526 (  5582 PWs)   bands (ev):

  -121.8168-120.8687 -77.1123 -76.1040 -75.6701 -75.6701 -74.8151 -74.8151
    -9.7891  -7.1648  -4.3539  -4.2825  -4.2825  -3.0925  -3.0925  -2.0927
    -2.0927  -1.8035  -1.6926  -1.6926   2.1902   4.0671   4.0671   5.6099
     7.4167   7.4167

          k = 0.0000 0.0000 0.2288 (  5552 PWs)   bands (ev):

  -121.8167-120.8687 -77.1122 -76.1040 -75.6701 -75.6701 -74.8151 -74.8151
    -9.7856  -7.1696  -4.3570  -4.2825  -4.2825  -3.0933  -3.0933  -2.0923
    -2.0923  -1.8491  -1.6923  -1.6923   2.4825   4.0753   4.0753   5.1519
     7.3976   7.3976

          k = 0.0000 0.0000-0.3051 (  5576 PWs)   bands (ev):

  -121.8168-120.8687 -77.1123 -76.1040 -75.6701 -75.6701 -74.8151 -74.8151
    -9.7842  -7.1716  -4.3583  -4.2825  -4.2825  -3.0937  -3.0937  -2.0921
    -2.0921  -1.8673  -1.6921  -1.6921   2.6257   4.0788   4.0788   4.9524
     7.3897   7.3897

          k = 0.0000 0.1443 0.0000 (  5591 PWs)   bands (ev):

  -121.8168-120.8687 -77.1123 -76.1040 -75.6701 -75.6701 -74.8151 -74.8151
    -9.7453  -7.1494  -4.3778  -4.2854  -4.2228  -3.1131  -3.0904  -2.1000
    -2.0863  -1.8162  -1.6675  -1.5507   1.9580   3.3744   3.8380   6.5394
     6.9333   7.5342

          k = 0.0000 0.1443 0.0763 (  5588 PWs)   bands (ev):

  -121.8168-120.8687 -77.1123 -76.1040 -75.6701 -75.6701 -74.8151 -74.8151
    -9.7440  -7.1511  -4.3786  -4.2853  -4.2232  -3.1134  -3.0908  -2.1000
    -2.0862  -1.8223  -1.6674  -1.5628   2.0381   3.3678   3.8427   6.4089
     6.9163   7.5177

          k = 0.0000 0.1443 0.1526 (  5591 PWs)   bands (ev):

  -121.8168-120.8687 -77.1123 -76.1040 -75.6701 -75.6701 -74.8151 -74.8151
    -9.7408  -7.1552  -4.3806  -4.2852  -4.2241  -3.1141  -3.0916  -2.1004
    -2.0859  -1.8391  -1.6671  -1.5881   2.2466   3.3565   3.8526   5.9920
     7.0277   7.4872

          k = 0.0000 0.1443 0.2288 (  5595 PWs)   bands (ev):

  -121.8168-120.8687 -77.1123 -76.1040 -75.6701 -75.6701 -74.8151 -74.8151
    -9.7377  -7.1594  -4.3826  -4.2851  -4.2251  -3.1149  -3.0925  -2.1012
    -2.0855  -1.8582  -1.6668  -1.6086   2.4873   3.3355   3.8619   5.6300
     7.0788   7.4605

          k = 0.0000 0.1443-0.3051 (  5604 PWs)   bands (ev):

  -121.8168-120.8687 -77.1123 -76.1040 -75.6701 -75.6701 -74.8151 -74.8151
    -9.7364  -7.1611  -4.3834  -4.2852  -4.2254  -3.1153  -3.0928  -2.1017
    -2.0854  -1.8667  -1.6666  -1.6158   2.6018   3.3266   3.8650   5.4600
     7.1144   7.4531

          k = 0.0000 0.2887 0.0000 (  5581 PWs)   bands (ev):

  -121.8168-120.8687 -77.1122 -76.1040 -75.6701 -75.6701 -74.8151 -74.8151
    -9.6244  -7.1287  -4.4087  -4.2921  -4.1011  -3.1579  -3.0877  -2.1149
    -2.0697  -1.8845  -1.6022  -1.3551   2.0709   2.4654   3.3843   5.9002
     7.0028   7.6533

          k = 0.0000 0.2887 0.0763 (  5596 PWs)   bands (ev):

  -121.8168-120.8687 -77.1122 -76.1040 -75.6701 -75.6701 -74.8151 -74.8151
    -9.6235  -7.1297  -4.4093  -4.2920  -4.1017  -3.1580  -3.0882  -2.1149
    -2.0696  -1.8848  -1.6021  -1.3648   2.0457   2.5209   3.3900   6.0626
     6.8256   7.6267

          k = 0.0000 0.2887 0.1526 (  5604 PWs)   bands (ev):

  -121.8168-120.8687 -77.1123 -76.1040 -75.6701 -75.6701 -74.8151 -74.8151
    -9.6211  -7.1322  -4.4105  -4.2918  -4.1033  -3.1586  -3.0893  -2.1162
    -2.0694  -1.8852  -1.6018  -1.3888   2.0067   2.6637   3.4020   6.1628
     6.6733   7.5750

          k = 0.0000 0.2887 0.2288 (  5619 PWs)   bands (ev):

  -121.8168-120.8687 -77.1123 -76.1040 -75.6701 -75.6701 -74.8151 -74.8151
    -9.6187  -7.1346  -4.4115  -4.2917  -4.1049  -3.1593  -3.0903  -2.1181
    -2.0692  -1.8853  -1.6015  -1.4122   1.9861   2.8014   3.4135   6.1445
     6.5932   7.5288

          k = 0.0000 0.2887-0.3051 (  5614 PWs)   bands (ev):

  -121.8168-120.8687 -77.1123 -76.1040 -75.6701 -75.6701 -74.8151 -74.8151
    -9.6177  -7.1356  -4.4118  -4.2917  -4.1056  -3.1598  -3.0906  -2.1194
    -2.0690  -1.8851  -1.6014  -1.4220   1.9812   2.8717   3.4175   5.9237
     6.7557   7.5142

          k = 0.0000 0.4330 0.0000 (  5619 PWs)   bands (ev):

  -121.8168-120.8687 -77.1122 -76.1040 -75.6702 -75.6701 -74.8152 -74.8151
    -9.4986  -7.1081  -4.4287  -4.2989  -3.9617  -3.1932  -3.0852  -2.1297
    -2.0530  -1.9236  -1.5309  -1.2408   1.4181   2.6722   2.9932   5.5320
     6.5016   7.6874

          k = 0.0000 0.4330 0.0763 (  5613 PWs)   bands (ev):

  -121.8168-120.8687 -77.1123 -76.1040 -75.6702 -75.6701 -74.8152 -74.8151
    -9.4980  -7.1083  -4.4290  -4.2988  -3.9626  -3.1933  -3.0857  -2.1297
    -2.0530  -1.9208  -1.5308  -1.2426   1.3772   2.6866   2.9990   5.7535
     6.4191   7.6552

          k = 0.0000 0.4330 0.1526 (  5606 PWs)   bands (ev):

  -121.8168-120.8687 -77.1123 -76.1040 -75.6702 -75.6701 -74.8152 -74.8151
    -9.4965  -7.1090  -4.4295  -4.2985  -3.9650  -3.1938  -3.0869  -2.1311
    -2.0529  -1.9122  -1.5306  -1.2503   1.2987   2.7373   3.0123   6.0001
     6.4727   7.5866

          k = 0.0000 0.4330 0.2288 (  5609 PWs)   bands (ev):

  -121.8168-120.8687 -77.1123 -76.1040 -75.6702 -75.6701 -74.8152 -74.8151
    -9.4951  -7.1097  -4.4298  -4.2983  -3.9674  -3.1946  -3.0881  -2.1331
    -2.0527  -1.9029  -1.5305  -1.2595   1.2347   2.7816   3.0254   6.2410
     6.4818   7.5229

          k = 0.0000 0.4330-0.3051 (  5616 PWs)   bands (ev):

  -121.8168-120.8687 -77.1123 -76.1040 -75.6702 -75.6701 -74.8152 -74.8151
    -9.4945  -7.1099  -4.4299  -4.2982  -3.9684  -3.1951  -3.0885  -2.1344
    -2.0527  -1.8984  -1.5304  -1.2648   1.2146   2.8070   3.0304   6.0784
     6.6865   7.4997

          k = 0.0000-0.5774 0.0000 (  5606 PWs)   bands (ev):

  -121.8168-120.8687 -77.1122 -76.1040 -75.6702 -75.6701 -74.8152 -74.8151
    -9.4449  -7.0995  -4.4358  -4.3017  -3.8932  -3.2047  -3.0841  -2.1364
    -2.0461  -1.9322  -1.4994  -1.2351   1.1728   2.8018   2.8430   5.6940
     5.9224   7.6865

          k = 0.0000-0.5774 0.0763 (  5614 PWs)   bands (ev):

  -121.8168-120.8687 -77.1122 -76.1040 -75.6702 -75.6701 -74.8152 -74.8151
    -9.4445  -7.0995  -4.4359  -4.3016  -3.8943  -3.2051  -3.0846  -2.1370
    -2.0461  -1.9270  -1.4993  -1.2350   1.1383   2.7991   2.8486   5.6700
     6.1097   7.6549

          k = 0.0000-0.5774 0.1526 (  5616 PWs)   bands (ev):

  -121.8168-120.8687 -77.1123 -76.1040 -75.6702 -75.6701 -74.8152 -74.8151
    -9.4434  -7.0994  -4.4360  -4.3013  -3.8972  -3.2059  -3.0859  -2.1385
    -2.0460  -1.9144  -1.4992  -1.2347   1.0595   2.7852   2.8622   5.7826
     6.4048   7.5808

          k = 0.0000-0.5774 0.2288 (  5610 PWs)   bands (ev):

  -121.8168-120.8687 -77.1123 -76.1040 -75.6702 -75.6701 -74.8152 -74.8151
    -9.4424  -7.0993  -4.4362  -4.3011  -3.9000  -3.2067  -3.0872  -2.1398
    -2.0459  -1.9018  -1.4991  -1.2343   0.9860   2.7635   2.8759   6.0518
     6.5344   7.5096

          k = 0.0000-0.5774-0.3051 (  5616 PWs)   bands (ev):

  -121.8168-120.8687 -77.1123 -76.1040 -75.6702 -75.6701 -74.8152 -74.8151
    -9.4419  -7.0992  -4.4362  -4.3009  -3.9012  -3.2070  -3.0877  -2.1403
    -2.0459  -1.8965  -1.4990  -1.2342   0.9568   2.7529   2.8816   6.3487
     6.3838   7.4808

          k = 0.1250 0.2165 0.0000 (  5580 PWs)   bands (ev):

  -121.8168-120.8687 -77.1123 -76.1040 -75.6701 -75.6701 -74.8151 -74.8151
    -9.6604  -7.1347  -4.3993  -4.2933  -4.1362  -3.1444  -3.0901  -2.1079
    -2.0773  -1.8698  -1.6200  -1.4049   2.1235   2.6719   3.3769   6.1957
     6.9983   7.5595

          k = 0.1250 0.2165 0.0763 (  5594 PWs)   bands (ev):

  -121.8168-120.8687 -77.1123 -76.1040 -75.6701 -75.6701 -74.8151 -74.8151
    -9.6594  -7.1360  -4.3999  -4.2933  -4.1368  -3.1447  -3.0905  -2.1084
    -2.0772  -1.8712  -1.6199  -1.4164   2.1498   2.7015   3.3834   6.1297
     7.0223   7.5390

          k = 0.1250 0.2165 0.1526 (  5597 PWs)   bands (ev):

  -121.8168-120.8687 -77.1123 -76.1040 -75.6701 -75.6701 -74.8151 -74.8151
    -9.6567  -7.1389  -4.4012  -4.2932  -4.1382  -3.1453  -3.0915  -2.1096
    -2.0770  -1.8748  -1.6197  -1.4430   2.2076   2.7798   3.4002   6.0112
     7.0105   7.4872

          k = 0.1250 0.2165 0.2288 (  5606 PWs)   bands (ev):

  -121.8168-120.8687 -77.1123 -76.1040 -75.6701 -75.6701 -74.8151 -74.8151
    -9.6541  -7.1418  -4.4026  -4.2930  -4.1396  -3.1460  -3.0925  -2.1110
    -2.0769  -1.8787  -1.6195  -1.4680   2.2582   2.8669   3.4189   5.9347
     6.9179   7.4339

          k = 0.1250 0.2165-0.3051 (  5606 PWs)   bands (ev):

  -121.8168-120.8687 -77.1123 -76.1040 -75.6701 -75.6701 -74.8151 -74.8151
    -9.6530  -7.1431  -4.4032  -4.2930  -4.1402  -3.1462  -3.0929  -2.1116
    -2.0768  -1.8804  -1.6194  -1.4779   2.2773   2.9051   3.4275   5.9148
     6.8581   7.4120

          k = 0.1250 0.3608 0.0000 (  5602 PWs)   bands (ev):

  -121.8168-120.8687 -77.1122 -76.1040 -75.6702 -75.6701 -74.8152 -74.8151
    -9.5365  -7.1138  -4.4155  -4.3063  -4.0040  -3.1798  -3.0908  -2.1179
    -2.0664  -1.9179  -1.5479  -1.2548   1.7505   2.5593   2.8311   5.7513
     6.8520   7.4465

          k = 0.1250 0.3608 0.0763 (  5601 PWs)   bands (ev):

  -121.8168-120.8687 -77.1122 -76.1040 -75.6702 -75.6701 -74.8152 -74.8151
    -9.5358  -7.1144  -4.4159  -4.3062  -4.0048  -3.1799  -3.0914  -2.1181
    -2.0664  -1.9160  -1.5479  -1.2602   1.7083   2.5867   2.8563   5.8722
     6.8215   7.3977

          k = 0.1250 0.3608 0.1526 (  5604 PWs)   bands (ev):

  -121.8168-120.8687 -77.1123 -76.1040 -75.6701 -75.6701 -74.8152 -74.8151
    -9.5340  -7.1156  -4.4166  -4.3060  -4.0069  -3.1803  -3.0926  -2.1194
    -2.0660  -1.9105  -1.5479  -1.2747   1.6302   2.6539   2.9054   6.0367
     6.8453   7.3134

          k = 0.1250 0.3608 0.2288 (  5606 PWs)   bands (ev):

  -121.8168-120.8687 -77.1123 -76.1040 -75.6701 -75.6701 -74.8152 -74.8151
    -9.5323  -7.1168  -4.4172  -4.3058  -4.0089  -3.1809  -3.0938  -2.1210
    -2.0657  -1.9046  -1.5480  -1.2899   1.5710   2.7053   2.9515   6.2592
     6.7537   7.2575

          k = 0.1250 0.3608-0.3051 (  5602 PWs)   bands (ev):

  -121.8168-120.8687 -77.1123 -76.1040 -75.6701 -75.6701 -74.8152 -74.8151
    -9.5315  -7.1172  -4.4174  -4.3058  -4.0098  -3.1812  -3.0943  -2.1221
    -2.0654  -1.9017  -1.5481  -1.2968   1.5523   2.7303   2.9671   6.2407
     6.7988   7.2445

          k = 0.1250 0.5052 0.0000 (  5603 PWs)   bands (ev):

  -121.8168-120.8687 -77.1122 -76.1040 -75.6702 -75.6701 -74.8152 -74.8151
    -9.4459  -7.0990  -4.4234  -4.3152  -3.8920  -3.1991  -3.0914  -2.1272
    -2.0596  -1.9372  -1.4987  -1.1997   1.2961   2.5042   2.8054   5.6781
     6.2819   7.4079

          k = 0.1250 0.5052 0.0763 (  5608 PWs)   bands (ev):

  -121.8168-120.8687 -77.1122 -76.1040 -75.6702 -75.6701 -74.8152 -74.8151
    -9.4455  -7.0989  -4.4235  -4.3151  -3.8931  -3.1992  -3.0920  -2.1272
    -2.0592  -1.9334  -1.4987  -1.1995   1.2603   2.5032   2.8060   5.8350
     6.3006   7.3508

          k = 0.1250 0.5052 0.1526 (  5609 PWs)   bands (ev):

  -121.8168-120.8687 -77.1123 -76.1040 -75.6702 -75.6701 -74.8152 -74.8151
    -9.4444  -7.0989  -4.4237  -4.3148  -3.8958  -3.1998  -3.0934  -2.1280
    -2.0582  -1.9233  -1.4989  -1.2006   1.1841   2.5073   2.8052   6.0513
     6.5048   7.2465

          k = 0.1250 0.5052 0.2288 (  5610 PWs)   bands (ev):

  -121.8168-120.8687 -77.1123 -76.1040 -75.6702 -75.6701 -74.8152 -74.8151
    -9.4434  -7.0988  -4.4239  -4.3146  -3.8985  -3.2005  -3.0948  -2.1290
    -2.0573  -1.9127  -1.4991  -1.2026   1.1153   2.5154   2.7972   6.3157
     6.6380   7.2005

          k = 0.1250 0.5052-0.3051 (  5622 PWs)   bands (ev):

  -121.8168-120.8687 -77.1123 -76.1040 -75.6702 -75.6701 -74.8152 -74.8151
    -9.4429  -7.0987  -4.4239  -4.3146  -3.8997  -3.2008  -3.0954  -2.1296
    -2.0569  -1.9078  -1.4992  -1.2042   1.0904   2.5205   2.7934   6.3557
     6.6953   7.2443

          k = 0.2500 0.4330 0.0000 (  5600 PWs)   bands (ev):

  -121.8168-120.8687 -77.1123 -76.1040 -75.6702 -75.6701 -74.8152 -74.8151
    -9.4470  -7.0984  -4.4068  -4.3328  -3.8908  -3.1925  -3.0995  -2.1138
    -2.0769  -1.9417  -1.4982  -1.1648   1.5259   2.0860   2.8050   5.7573
     6.5760   7.1156

          k = 0.2500 0.4330 0.0763 (  5602 PWs)   bands (ev):

  -121.8168-120.8687 -77.1123 -76.1040 -75.6702 -75.6701 -74.8152 -74.8151
    -9.4465  -7.0984  -4.4069  -4.3327  -3.8919  -3.1927  -3.1002  -2.1139
    -2.0762  -1.9385  -1.4983  -1.1663   1.4920   2.0862   2.8146   5.8286
     6.6586   7.0669

          k = 0.2500 0.4330 0.1526 (  5606 PWs)   bands (ev):

  -121.8168-120.8687 -77.1123 -76.1040 -75.6702 -75.6701 -74.8152 -74.8151
    -9.4454  -7.0984  -4.4071  -4.3325  -3.8945  -3.1930  -3.1018  -2.1142
    -2.0744  -1.9304  -1.4987  -1.1701   1.4140   2.0919   2.8269   6.0455
     6.7835   7.0191

          k = 0.2500 0.4330 0.2288 (  5593 PWs)   bands (ev):

  -121.8168-120.8687 -77.1123 -76.1040 -75.6702 -75.6701 -74.8152 -74.8151
    -9.4443  -7.0983  -4.4073  -4.3323  -3.8971  -3.1934  -3.1034  -2.1144
    -2.0729  -1.9218  -1.4991  -1.1741   1.3414   2.1022   2.8278   6.3561
     6.7445   7.0972

          k = 0.2500 0.4330-0.3051 (  5588 PWs)   bands (ev):

  -121.8168-120.8687 -77.1123 -76.1040 -75.6702 -75.6701 -74.8152 -74.8151
    -9.4439  -7.0983  -4.4074  -4.3322  -3.8982  -3.1935  -3.1041  -2.1145
    -2.0723  -1.9182  -1.4993  -1.1758   1.3127   2.1073   2.8257   6.5326
     6.7322   7.0893

          k = 0.2500 0.5774 0.0000 (  5594 PWs)   bands (ev):

  -121.8168-120.8687 -77.1123 -76.1040 -75.6702 -75.6701 -74.8152 -74.8151
    -9.4094  -7.0919  -4.3961  -4.3498  -3.8378  -3.1955  -3.1042  -2.1129
    -2.0836  -1.9468  -1.4879  -1.1199   1.4120   1.8519   2.8797   5.8709
     6.3257   6.9797

          k = 0.2500 0.5774 0.0763 (  5603 PWs)   bands (ev):

  -121.8168-120.8687 -77.1123 -76.1040 -75.6702 -75.6701 -74.8152 -74.8151
    -9.4091  -7.0916  -4.3961  -4.3498  -3.8390  -3.1956  -3.1049  -2.1122
    -2.0828  -1.9436  -1.4880  -1.1199   1.3871   1.8464   2.8640   5.9651
     6.4229   6.9162

          k = 0.2500 0.5774 0.1526 (  5604 PWs)   bands (ev):

  -121.8168-120.8687 -77.1123 -76.1040 -75.6702 -75.6701 -74.8152 -74.8151
    -9.4083  -7.0910  -4.3961  -4.3496  -3.8420  -3.1959  -3.1067  -2.1106
    -2.0809  -1.9355  -1.4881  -1.1198   1.3234   1.8416   2.8260   6.2111
     6.6175   6.8378

          k = 0.2500 0.5774 0.2288 (  5604 PWs)   bands (ev):

  -121.8168-120.8687 -77.1123 -76.1040 -75.6702 -75.6701 -74.8152 -74.8151
    -9.4075  -7.0904  -4.3961  -4.3494  -3.8449  -3.1963  -3.1085  -2.1093
    -2.0789  -1.9268  -1.4883  -1.1197   1.2570   1.8449   2.7885   6.4430
     6.6500   7.0308

          k = 0.2500 0.5774-0.3051 (  5598 PWs)   bands (ev):

  -121.8168-120.8687 -77.1123 -76.1040 -75.6702 -75.6701 -74.8152 -74.8151
    -9.4072  -7.0902  -4.3961  -4.3493  -3.8461  -3.1964  -3.1093  -2.1089
    -2.0781  -1.9230  -1.4884  -1.1196   1.2293   1.8479   2.7732   6.4576
     6.7445   7.1513

          k = 0.0000-0.1443 0.0763 (  5588 PWs)   bands (ev):

  -121.8168-120.8687 -77.1123 -76.1040 -75.6701 -75.6701 -74.8151 -74.8151
    -9.7440  -7.1511  -4.3785  -4.2854  -4.2232  -3.1135  -3.0906  -2.1003
    -2.0862  -1.8225  -1.6674  -1.5627   2.0383   3.3798   3.8410   6.2262
     7.1465   7.5268

          k = 0.0000-0.1443 0.1526 (  5591 PWs)   bands (ev):

  -121.8168-120.8687 -77.1123 -76.1040 -75.6701 -75.6701 -74.8151 -74.8151
    -9.7408  -7.1552  -4.3805  -4.2853  -4.2241  -3.1143  -3.0915  -2.1009
    -2.0858  -1.8393  -1.6671  -1.5879   2.2457   3.3774   3.8502   5.8529
     7.2018   7.5000

          k = 0.0000-0.1443 0.2288 (  5595 PWs)   bands (ev):

  -121.8168-120.8687 -77.1123 -76.1040 -75.6701 -75.6701 -74.8151 -74.8151
    -9.7377  -7.1594  -4.3825  -4.2852  -4.2251  -3.1151  -3.0924  -2.1015
    -2.0855  -1.8583  -1.6667  -1.6085   2.4846   3.3551   3.8602   5.5547
     7.1629   7.4694

          k = 0.0000-0.2887 0.0763 (  5596 PWs)   bands (ev):

  -121.8168-120.8687 -77.1122 -76.1040 -75.6701 -75.6701 -74.8151 -74.8151
    -9.6235  -7.1297  -4.4090  -4.2921  -4.1018  -3.1584  -3.0881  -2.1160
    -2.0695  -1.8843  -1.6020  -1.3658   2.0434   2.5570   3.3883   5.7322
     7.1678   7.6382

          k = 0.0000-0.2887 0.1526 (  5604 PWs)   bands (ev):

  -121.8168-120.8687 -77.1123 -76.1040 -75.6701 -75.6701 -74.8151 -74.8151
    -9.6211  -7.1321  -4.4101  -4.2920  -4.1035  -3.1591  -3.0891  -2.1178
    -2.0693  -1.8844  -1.6017  -1.3901   2.0069   2.7160   3.3996   5.6476
     7.1947   7.5907

          k = 0.0000-0.2887 0.2288 (  5619 PWs)   bands (ev):

  -121.8168-120.8687 -77.1123 -76.1040 -75.6701 -75.6701 -74.8151 -74.8151
    -9.6187  -7.1346  -4.4113  -4.2918  -4.1051  -3.1597  -3.0902  -2.1193
    -2.0691  -1.8847  -1.6015  -1.4131   1.9871   2.8411   3.4117   5.7132
     7.0193   7.5396

          k = 0.0000-0.4330 0.0763 (  5613 PWs)   bands (ev):

  -121.8168-120.8687 -77.1123 -76.1040 -75.6702 -75.6701 -74.8152 -74.8151
    -9.4980  -7.1083  -4.4288  -4.2989  -3.9628  -3.1936  -3.0856  -2.1312
    -2.0529  -1.9192  -1.5308  -1.2457   1.3874   2.7187   2.9981   5.4107
     6.7117   7.6624

          k = 0.0000-0.4330 0.1526 (  5606 PWs)   bands (ev):

  -121.8168-120.8687 -77.1123 -76.1040 -75.6702 -75.6701 -74.8152 -74.8151
    -9.4965  -7.1090  -4.4291  -4.2986  -3.9652  -3.1944  -3.0868  -2.1332
    -2.0528  -1.9100  -1.5306  -1.2547   1.3130   2.7813   3.0109   5.4730
     6.9068   7.5962

          k = 0.0000-0.4330 0.2288 (  5609 PWs)   bands (ev):

  -121.8168-120.8687 -77.1123 -76.1040 -75.6702 -75.6701 -74.8152 -74.8151
    -9.4951  -7.1097  -4.4296  -4.2984  -3.9675  -3.1950  -3.0880  -2.1345
    -2.0527  -1.9013  -1.5304  -1.2627   1.2447   2.8112   3.0244   5.7275
     6.9103   7.5294

          k =-0.1250-0.3608 0.0763 (  5601 PWs)   bands (ev):

  -121.8168-120.8687 -77.1122 -76.1040 -75.6702 -75.6701 -74.8152 -74.8151
    -9.5358  -7.1143  -4.4157  -4.3063  -4.0049  -3.1801  -3.0913  -2.1191
    -2.0662  -1.9153  -1.5478  -1.2617   1.7140   2.6170   2.8394   5.6812
     6.9881   7.4273

          k =-0.1250-0.3608 0.1526 (  5604 PWs)   bands (ev):

  -121.8168-120.8687 -77.1123 -76.1040 -75.6701 -75.6701 -74.8152 -74.8151
    -9.5340  -7.1155  -4.4163  -4.3061  -4.0070  -3.1807  -3.0925  -2.1207
    -2.0658  -1.9095  -1.5479  -1.2768   1.6385   2.6936   2.8854   5.7345
     7.1023   7.3639

          k =-0.1250-0.3608 0.2288 (  5606 PWs)   bands (ev):

  -121.8168-120.8687 -77.1123 -76.1040 -75.6701 -75.6701 -74.8152 -74.8151
    -9.5323  -7.1168  -4.4170  -4.3059  -4.0090  -3.1811  -3.0937  -2.1220
    -2.0655  -1.9038  -1.5480  -1.2914   1.5769   2.7289   2.9421   5.9475
     7.0369   7.2893

          k =-0.1250-0.5052 0.0763 (  5608 PWs)   bands (ev):

  -121.8168-120.8687 -77.1122 -76.1040 -75.6702 -75.6701 -74.8152 -74.8151
    -9.4455  -7.0989  -4.4234  -4.3151  -3.8932  -3.1994  -3.0920  -2.1280
    -2.0590  -1.9326  -1.4987  -1.2011   1.2661   2.5066   2.8125   5.6373
     6.4690   7.3790

          k =-0.1250-0.5052 0.1526 (  5609 PWs)   bands (ev):

  -121.8168-120.8687 -77.1123 -76.1040 -75.6702 -75.6701 -74.8152 -74.8151
    -9.4444  -7.0989  -4.4235  -4.3149  -3.8959  -3.2000  -3.0934  -2.1291
    -2.0580  -1.9222  -1.4989  -1.2031   1.1922   2.5118   2.8129   5.7770
     6.7116   7.3101

          k =-0.1250-0.5052 0.2288 (  5610 PWs)   bands (ev):

  -121.8168-120.8687 -77.1123 -76.1040 -75.6702 -75.6701 -74.8152 -74.8151
    -9.4434  -7.0988  -4.4237  -4.3147  -3.8986  -3.2006  -3.0948  -2.1297
    -2.0571  -1.9119  -1.4991  -1.2044   1.1210   2.5186   2.8015   6.0626
     6.8011   7.2808

     highest occupied level (ev):     7.6874

!    total energy              =    -839.89833659 Ry
     estimated scf accuracy    <          2.9E-09 Ry

     The total energy is the sum of the following terms:
     one-electron contribution =    -844.97054811 Ry
     hartree contribution      =     423.95122976 Ry
     xc contribution           =     -82.69411511 Ry
     ewald contribution        =    -336.18490314 Ry

     convergence has been achieved in  11 iterations

     Writing all to output data dir ./SCRATCH/zns_w.save/

     init_run     :      5.62s CPU      5.72s WALL (       1 calls)
     electrons    :    253.17s CPU    254.06s WALL (       1 calls)

     Called by init_run:
     wfcinit      :      5.45s CPU      5.53s WALL (       1 calls)
     potinit      :      0.08s CPU      0.09s WALL (       1 calls)
     hinit0       :      0.05s CPU      0.05s WALL (       1 calls)

     Called by electrons:
     c_bands      :    233.53s CPU    234.25s WALL (      11 calls)
     sum_band     :     19.22s CPU     19.35s WALL (      11 calls)
     v_of_rho     :      0.41s CPU      0.45s WALL (      12 calls)
     mix_rho      :      0.05s CPU      0.06s WALL (      11 calls)

     Called by c_bands:
     init_us_2    :      2.08s CPU      1.98s WALL (    1495 calls)
     init_us_2:cp :      2.06s CPU      1.98s WALL (    1495 calls)
     cegterg      :    228.86s CPU    229.49s WALL (     715 calls)

     Called by *egterg:
     cdiaghg      :      2.84s CPU      2.86s WALL (    4826 calls)
     h_psi        :    167.02s CPU    167.28s WALL (    4891 calls)
     g_psi        :      0.66s CPU      0.71s WALL (    4111 calls)

     Called by h_psi:
     h_psi:calbec :     21.38s CPU     20.64s WALL (    4891 calls)
     vloc_psi     :    130.94s CPU    131.52s WALL (    4891 calls)
     add_vuspsi   :     14.38s CPU     14.50s WALL (    4891 calls)

     General routines
     calbec       :     21.38s CPU     20.62s WALL (    4891 calls)
     fft          :      0.08s CPU      0.17s WALL (     119 calls)
     ffts         :      0.00s CPU      0.02s WALL (      11 calls)
     fftw         :    137.31s CPU    136.49s WALL (  152232 calls)


     PWSCF        :   4m18.86s CPU   4m19.90s WALL


   This run was terminated on:  13: 0:21   9Jun2024            

=------------------------------------------------------------------------------=
   JOB DONE.
=------------------------------------------------------------------------------=
