
     Program PWSCF v.7.2 starts on  9Jun2024 at 12:50: 4 

     This program is part of the open-source Quantum ESPRESSO suite
     for quantum simulation of materials; please cite
         "P. Giannozzi et al., J. Phys.:Condens. Matter 21 395502 (2009);
         "P. Giannozzi et al., J. Phys.:Condens. Matter 29 465901 (2017);
         "P. Giannozzi et al., J. Chem. Phys. 152 154105 (2020);
          URL http://www.quantum-espresso.org", 
     in publications or presentations arising from this work. More details at
     http://www.quantum-espresso.org/quote

     Serial version
     8487 MiB available memory on the printing compute node when the environment starts

     Waiting for input...
     Reading input from standard input

     Current dimensions of program PWSCF are:
     Max number of different atomic species (ntypx) = 10
     Max number of k-points (npk) =  40000
     Max angular momentum in pseudopotentials (lmaxx) =  4


     G-vector sticks info
     --------------------
     sticks:   dense  smooth     PW     G-vecs:    dense   smooth      PW
     Sum         745     745    211                27151    27151    4271

     Using Slab Decomposition



     bravais-lattice index     =            4
     lattice parameter (alat)  =       7.3631  a.u.
     unit-cell volume          =     566.5376 (a.u.)^3
     number of atoms/cell      =            4
     number of atomic types    =            2
     number of electrons       =        52.00
     number of Kohn-Sham states=           26
     kinetic-energy cutoff     =      50.0000  Ry
     charge density cutoff     =     200.0000  Ry
     scf convergence threshold =      1.0E-08
     mixing beta               =       0.7000
     number of iterations used =            8  plain     mixing
     Exchange-correlation= PBE
                           (   1   4   3   4   0   0   0)

     celldm(1)=   7.363128  celldm(2)=   0.000000  celldm(3)=   1.638743
     celldm(4)=   0.000000  celldm(5)=   0.000000  celldm(6)=   0.000000

     crystal axes: (cart. coord. in units of alat)
               a(1) = (   1.000000   0.000000   0.000000 )  
               a(2) = (  -0.500000   0.866025   0.000000 )  
               a(3) = (   0.000000   0.000000   1.638743 )  

     reciprocal axes: (cart. coord. in units 2 pi/alat)
               b(1) = (  1.000000  0.577350 -0.000000 )  
               b(2) = (  0.000000  1.154701  0.000000 )  
               b(3) = (  0.000000 -0.000000  0.610224 )  


     PseudoPot. # 1 for Zn read from file:
     /home/paolo/project_labqsm/pseudopotentials/Zn_ONCV_PBE-1.2.upf
     MD5 check sum: 732f41c0cd6489a4b50a33b4ec99a2d3
     Pseudo is Norm-conserving, Zval = 20.0
     Generated using ONCVPSP code by D. R. Hamann
     Using radial grid of  602 points,  6 beta functions with: 
                l(1) =   0
                l(2) =   0
                l(3) =   1
                l(4) =   1
                l(5) =   2
                l(6) =   2

     PseudoPot. # 2 for S  read from file:
     /home/paolo/project_labqsm/pseudopotentials/S_ONCV_PBE-1.2.upf
     MD5 check sum: f9d020296ee6110346977bfd66d424f6
     Pseudo is Norm-conserving, Zval =  6.0
     Generated using ONCVPSP code by D. R. Hamann
     Using radial grid of  602 points,  4 beta functions with: 
                l(1) =   0
                l(2) =   0
                l(3) =   1
                l(4) =   1

     atomic species   valence    mass     pseudopotential
        Zn            20.00    65.38000     Zn( 1.00)
        S              6.00    32.06000     S ( 1.00)

      6 Sym. Ops. (no inversion) found



   Cartesian axes

     site n.     atom                  positions (alat units)
         1           Zn  tau(   1) = (   0.0000000   0.0000000   0.0000000  )
         2           S   tau(   2) = (   0.0000000   0.0000000   0.3723729  )
         3           Zn  tau(   3) = (   0.0000000   0.5773503   0.5000000  )
         4           S   tau(   4) = (   0.0000000   0.5773503   0.8723729  )

     number of k points=    65
                       cart. coord. in units 2pi/alat
        k(    1) = (   0.0000000   0.0000000   0.0000000), wk =   0.0039062
        k(    2) = (   0.0000000   0.0000000   0.0762780), wk =   0.0078125
        k(    3) = (   0.0000000   0.0000000   0.1525559), wk =   0.0078125
        k(    4) = (   0.0000000   0.0000000   0.2288339), wk =   0.0078125
        k(    5) = (   0.0000000   0.0000000  -0.3051118), wk =   0.0039062
        k(    6) = (   0.0000000   0.1443376   0.0000000), wk =   0.0234375
        k(    7) = (   0.0000000   0.1443376   0.0762780), wk =   0.0234375
        k(    8) = (   0.0000000   0.1443376   0.1525559), wk =   0.0234375
        k(    9) = (   0.0000000   0.1443376   0.2288339), wk =   0.0234375
        k(   10) = (   0.0000000   0.1443376  -0.3051118), wk =   0.0234375
        k(   11) = (   0.0000000   0.2886751   0.0000000), wk =   0.0234375
        k(   12) = (   0.0000000   0.2886751   0.0762780), wk =   0.0234375
        k(   13) = (   0.0000000   0.2886751   0.1525559), wk =   0.0234375
        k(   14) = (   0.0000000   0.2886751   0.2288339), wk =   0.0234375
        k(   15) = (   0.0000000   0.2886751  -0.3051118), wk =   0.0234375
        k(   16) = (   0.0000000   0.4330127   0.0000000), wk =   0.0234375
        k(   17) = (   0.0000000   0.4330127   0.0762780), wk =   0.0234375
        k(   18) = (   0.0000000   0.4330127   0.1525559), wk =   0.0234375
        k(   19) = (   0.0000000   0.4330127   0.2288339), wk =   0.0234375
        k(   20) = (   0.0000000   0.4330127  -0.3051118), wk =   0.0234375
        k(   21) = (   0.0000000  -0.5773503   0.0000000), wk =   0.0117188
        k(   22) = (   0.0000000  -0.5773503   0.0762780), wk =   0.0234375
        k(   23) = (   0.0000000  -0.5773503   0.1525559), wk =   0.0234375
        k(   24) = (   0.0000000  -0.5773503   0.2288339), wk =   0.0234375
        k(   25) = (   0.0000000  -0.5773503  -0.3051118), wk =   0.0117188
        k(   26) = (   0.1250000   0.2165064   0.0000000), wk =   0.0234375
        k(   27) = (   0.1250000   0.2165064   0.0762780), wk =   0.0468750
        k(   28) = (   0.1250000   0.2165064   0.1525559), wk =   0.0468750
        k(   29) = (   0.1250000   0.2165064   0.2288339), wk =   0.0468750
        k(   30) = (   0.1250000   0.2165064  -0.3051118), wk =   0.0234375
        k(   31) = (   0.1250000   0.3608439   0.0000000), wk =   0.0468750
        k(   32) = (   0.1250000   0.3608439   0.0762780), wk =   0.0468750
        k(   33) = (   0.1250000   0.3608439   0.1525559), wk =   0.0468750
        k(   34) = (   0.1250000   0.3608439   0.2288339), wk =   0.0468750
        k(   35) = (   0.1250000   0.3608439  -0.3051118), wk =   0.0468750
        k(   36) = (   0.1250000   0.5051815   0.0000000), wk =   0.0468750
        k(   37) = (   0.1250000   0.5051815   0.0762780), wk =   0.0468750
        k(   38) = (   0.1250000   0.5051815   0.1525559), wk =   0.0468750
        k(   39) = (   0.1250000   0.5051815   0.2288339), wk =   0.0468750
        k(   40) = (   0.1250000   0.5051815  -0.3051118), wk =   0.0468750
        k(   41) = (   0.2500000   0.4330127   0.0000000), wk =   0.0234375
        k(   42) = (   0.2500000   0.4330127   0.0762780), wk =   0.0468750
        k(   43) = (   0.2500000   0.4330127   0.1525559), wk =   0.0468750
        k(   44) = (   0.2500000   0.4330127   0.2288339), wk =   0.0468750
        k(   45) = (   0.2500000   0.4330127  -0.3051118), wk =   0.0234375
        k(   46) = (   0.2500000   0.5773503   0.0000000), wk =   0.0234375
        k(   47) = (   0.2500000   0.5773503   0.0762780), wk =   0.0468750
        k(   48) = (   0.2500000   0.5773503   0.1525559), wk =   0.0468750
        k(   49) = (   0.2500000   0.5773503   0.2288339), wk =   0.0468750
        k(   50) = (   0.2500000   0.5773503  -0.3051118), wk =   0.0234375
        k(   51) = (   0.0000000  -0.1443376   0.0762780), wk =   0.0234375
        k(   52) = (   0.0000000  -0.1443376   0.1525559), wk =   0.0234375
        k(   53) = (   0.0000000  -0.1443376   0.2288339), wk =   0.0234375
        k(   54) = (   0.0000000  -0.2886751   0.0762780), wk =   0.0234375
        k(   55) = (   0.0000000  -0.2886751   0.1525559), wk =   0.0234375
        k(   56) = (   0.0000000  -0.2886751   0.2288339), wk =   0.0234375
        k(   57) = (   0.0000000  -0.4330127   0.0762780), wk =   0.0234375
        k(   58) = (   0.0000000  -0.4330127   0.1525559), wk =   0.0234375
        k(   59) = (   0.0000000  -0.4330127   0.2288339), wk =   0.0234375
        k(   60) = (  -0.1250000  -0.3608439   0.0762780), wk =   0.0468750
        k(   61) = (  -0.1250000  -0.3608439   0.1525559), wk =   0.0468750
        k(   62) = (  -0.1250000  -0.3608439   0.2288339), wk =   0.0468750
        k(   63) = (  -0.1250000  -0.5051815   0.0762780), wk =   0.0468750
        k(   64) = (  -0.1250000  -0.5051815   0.1525559), wk =   0.0468750
        k(   65) = (  -0.1250000  -0.5051815   0.2288339), wk =   0.0468750

     Dense  grid:    27151 G-vectors     FFT dimensions: (  36,  36,  60)

     Estimated max dynamical RAM per process >     116.48 MB

     Initial potential from superposition of free atoms

     starting charge      51.9339, renormalised to      52.0000
     Starting wfcs are random

     total cpu time spent up to now is        3.2 secs

     Self-consistent Calculation

     iteration #  1     ecut=    50.00 Ry     beta= 0.70
     Davidson diagonalization with overlap
     ethr =  1.00E-02,  avg # of iterations = 14.9

     total cpu time spent up to now is       45.0 secs

     total energy              =    -838.93543038 Ry
     estimated scf accuracy    <       1.34084091 Ry

     iteration #  2     ecut=    50.00 Ry     beta= 0.70
     Davidson diagonalization with overlap
     ethr =  2.58E-03,  avg # of iterations =  8.5

     total cpu time spent up to now is       57.6 secs

     total energy              =    -838.31272674 Ry
     estimated scf accuracy    <       7.63243098 Ry

     iteration #  3     ecut=    50.00 Ry     beta= 0.70
     Davidson diagonalization with overlap
     ethr =  2.58E-03,  avg # of iterations =  6.3

     total cpu time spent up to now is       68.7 secs

     total energy              =    -839.64773267 Ry
     estimated scf accuracy    <       0.40890137 Ry

     iteration #  4     ecut=    50.00 Ry     beta= 0.70
     Davidson diagonalization with overlap
     ethr =  7.86E-04,  avg # of iterations =  2.0

     total cpu time spent up to now is       77.2 secs

     total energy              =    -839.66530885 Ry
     estimated scf accuracy    <       0.09370907 Ry

     iteration #  5     ecut=    50.00 Ry     beta= 0.70
     Davidson diagonalization with overlap
     ethr =  1.80E-04,  avg # of iterations =  3.8

     total cpu time spent up to now is       85.6 secs

     total energy              =    -839.67078818 Ry
     estimated scf accuracy    <       0.01468679 Ry

     iteration #  6     ecut=    50.00 Ry     beta= 0.70
     Davidson diagonalization with overlap
     ethr =  2.82E-05,  avg # of iterations =  4.4

     total cpu time spent up to now is       94.5 secs

     total energy              =    -839.67292400 Ry
     estimated scf accuracy    <       0.00131258 Ry

     iteration #  7     ecut=    50.00 Ry     beta= 0.70
     Davidson diagonalization with overlap
     ethr =  2.52E-06,  avg # of iterations =  5.0

     total cpu time spent up to now is      104.8 secs

     total energy              =    -839.67331701 Ry
     estimated scf accuracy    <       0.00043277 Ry

     iteration #  8     ecut=    50.00 Ry     beta= 0.70
     Davidson diagonalization with overlap
     ethr =  8.32E-07,  avg # of iterations =  3.1

     total cpu time spent up to now is      113.3 secs

     total energy              =    -839.67334496 Ry
     estimated scf accuracy    <       0.00005910 Ry

     iteration #  9     ecut=    50.00 Ry     beta= 0.70
     Davidson diagonalization with overlap
     ethr =  1.14E-07,  avg # of iterations =  5.1

     total cpu time spent up to now is      122.9 secs

     total energy              =    -839.67335941 Ry
     estimated scf accuracy    <       0.00000354 Ry

     iteration # 10     ecut=    50.00 Ry     beta= 0.70
     Davidson diagonalization with overlap
     ethr =  6.80E-09,  avg # of iterations =  4.2

     total cpu time spent up to now is      131.8 secs

     total energy              =    -839.67335993 Ry
     estimated scf accuracy    <       0.00000010 Ry

     iteration # 11     ecut=    50.00 Ry     beta= 0.70
     Davidson diagonalization with overlap
     ethr =  2.01E-10,  avg # of iterations =  5.4

     total cpu time spent up to now is      143.3 secs

     total energy              =    -839.67335997 Ry
     estimated scf accuracy    <       0.00000003 Ry

     iteration # 12     ecut=    50.00 Ry     beta= 0.70
     Davidson diagonalization with overlap
     ethr =  5.60E-11,  avg # of iterations =  3.2

     total cpu time spent up to now is      152.5 secs

     End of self-consistent calculation

          k = 0.0000 0.0000 0.0000 (  3369 PWs)   bands (ev):

  -122.5759-121.6350 -77.6416 -76.6391 -76.1943 -76.1943 -75.3458 -75.3458
    -9.8636  -7.2706  -4.4783  -4.4349  -4.4349  -3.2549  -3.2549  -2.2264
    -2.2264  -1.8309  -1.8309  -1.8015   1.8306   4.0469   4.0469   6.3420
     7.4496   7.4496

          k = 0.0000 0.0000 0.0763 (  3387 PWs)   bands (ev):

  -122.5759-121.6350 -77.6414 -76.6389 -76.1953 -76.1953 -75.3467 -75.3467
    -9.8621  -7.2722  -4.4788  -4.4365  -4.4365  -3.2587  -3.2587  -2.2382
    -2.2382  -1.8415  -1.8415  -1.8233   1.9247   4.0469   4.0469   6.0890
     7.4403   7.4403

          k = 0.0000 0.0000 0.1526 (  3369 PWs)   bands (ev):

  -122.5759-121.6350 -77.6402 -76.6377 -76.1945 -76.1945 -75.3460 -75.3460
    -9.8575  -7.2755  -4.4708  -4.4285  -4.4285  -3.2506  -3.2506  -2.2315
    -2.2315  -1.8718  -1.8359  -1.8359   2.1727   4.0602   4.0602   5.5985
     7.4248   7.4248

          k = 0.0000 0.0000 0.2288 (  3381 PWs)   bands (ev):

  -122.5759-121.6350 -77.6402 -76.6377 -76.1949 -76.1949 -75.3464 -75.3464
    -9.8539  -7.2793  -4.4724  -4.4341  -4.4341  -3.2576  -3.2576  -2.2350
    -2.2350  -1.9157  -1.8391  -1.8391   2.4642   4.0665   4.0665   5.1419
     7.4037   7.4037

          k = 0.0000 0.0000-0.3051 (  3400 PWs)   bands (ev):

  -122.5759-121.6350 -77.6408 -76.6383 -76.1957 -76.1957 -75.3471 -75.3471
    -9.8529  -7.2821  -4.4784  -4.4364  -4.4364  -3.2617  -3.2617  -2.2439
    -2.2439  -1.9359  -1.8463  -1.8463   2.6061   4.0665   4.0665   4.9430
     7.3936   7.3936

          k = 0.0000 0.1443 0.0000 (  3383 PWs)   bands (ev):

  -122.5759-121.6350 -77.6411 -76.6386 -76.1952 -76.1952 -75.3467 -75.3466
    -9.8171  -7.2646  -4.5159  -4.4352  -4.3610  -3.2705  -3.2522  -2.2473
    -2.2309  -1.9333  -1.8164  -1.6595   1.9397   3.3585   3.8272   6.5312
     6.9304   7.5418

          k = 0.0000 0.1443 0.0763 (  3385 PWs)   bands (ev):

  -122.5759-121.6350 -77.6408 -76.6383 -76.1954 -76.1953 -75.3469 -75.3468
    -9.8149  -7.2640  -4.5154  -4.4373  -4.3599  -3.2737  -3.2525  -2.2457
    -2.2368  -1.9351  -1.8213  -1.6707   2.0199   3.3509   3.8309   6.4005
     6.9161   7.5230

          k = 0.0000 0.1443 0.1526 (  3393 PWs)   bands (ev):

  -122.5759-121.6350 -77.6408 -76.6384 -76.1960 -76.1952 -75.3475 -75.3467
    -9.8114  -7.2683  -4.5176  -4.4383  -4.3601  -3.2824  -3.2565  -2.2495
    -2.2372  -1.9484  -1.8223  -1.7045   2.2276   3.3375   3.8403   5.9847
     7.0296   7.4926

          k = 0.0000 0.1443 0.2288 (  3397 PWs)   bands (ev):

  -122.5759-121.6350 -77.6410 -76.6386 -76.1960 -76.1952 -75.3475 -75.3467
    -9.8090  -7.2737  -4.5191  -4.4369  -4.3628  -3.2809  -3.2565  -2.2491
    -2.2398  -1.9635  -1.8243  -1.7324   2.4665   3.3159   3.8495   5.6241
     7.0818   7.4655

          k = 0.0000 0.1443-0.3051 (  3406 PWs)   bands (ev):

  -122.5759-121.6350 -77.6412 -76.6387 -76.1964 -76.1955 -75.3479 -75.3469
    -9.8074  -7.2741  -4.5215  -4.4411  -4.3670  -3.2894  -3.2644  -2.2536
    -2.2402  -1.9696  -1.8233  -1.7433   2.5804   3.3037   3.8511   5.4534
     7.1155   7.4582

          k = 0.0000 0.2887 0.0000 (  3384 PWs)   bands (ev):

  -122.5759-121.6350 -77.6410 -76.6385 -76.1958 -76.1954 -75.3472 -75.3469
    -9.6999  -7.2426  -4.5522  -4.4446  -4.2308  -3.3188  -3.2519  -2.2658
    -2.2167  -1.9974  -1.7522  -1.4699   2.0501   2.4414   3.3710   5.8980
     6.9924   7.6617

          k = 0.0000 0.2887 0.0763 (  3376 PWs)   bands (ev):

  -122.5759-121.6350 -77.6407 -76.6382 -76.1955 -76.1951 -75.3469 -75.3466
    -9.6984  -7.2432  -4.5472  -4.4416  -4.2273  -3.3160  -3.2504  -2.2645
    -2.2120  -1.9963  -1.7484  -1.4793   2.0245   2.4977   3.3772   6.0639
     6.8153   7.6357

          k = 0.0000 0.2887 0.1526 (  3388 PWs)   bands (ev):

  -122.5759-121.6350 -77.6413 -76.6388 -76.1957 -76.1955 -75.3471 -75.3470
    -9.6961  -7.2464  -4.5532  -4.4485  -4.2278  -3.3254  -3.2591  -2.2635
    -2.2181  -1.9965  -1.7532  -1.5038   1.9833   2.6394   3.3854   6.1616
     6.6654   7.5802

          k = 0.0000 0.2887 0.2288 (  3387 PWs)   bands (ev):

  -122.5759-121.6350 -77.6413 -76.6388 -76.1956 -76.1954 -75.3470 -75.3469
    -9.6937  -7.2485  -4.5559  -4.4450  -4.2297  -3.3287  -3.2584  -2.2634
    -2.2174  -1.9950  -1.7526  -1.5277   1.9609   2.7762   3.3984   6.1388
     6.5921   7.5360

          k = 0.0000 0.2887-0.3051 (  3380 PWs)   bands (ev):

  -122.5759-121.6350 -77.6404 -76.6379 -76.1958 -76.1952 -75.3472 -75.3467
    -9.6919  -7.2470  -4.5491  -4.4426  -4.2271  -3.3216  -3.2569  -2.2648
    -2.2203  -1.9908  -1.7548  -1.5358   1.9572   2.8469   3.4035   5.9193
     6.7594   7.5221

          k = 0.0000 0.4330 0.0000 (  3390 PWs)   bands (ev):

  -122.5759-121.6350 -77.6413 -76.6389 -76.1959 -76.1958 -75.3474 -75.3473
    -9.5791  -7.2233  -4.5753  -4.4518  -4.0854  -3.3573  -3.2518  -2.2801
    -2.2053  -2.0228  -1.6892  -1.3760   1.3931   2.6438   2.9778   5.5272
     6.4927   7.6957

          k = 0.0000 0.4330 0.0763 (  3380 PWs)   bands (ev):

  -122.5759-121.6350 -77.6408 -76.6384 -76.1957 -76.1956 -75.3472 -75.3471
    -9.5775  -7.2218  -4.5761  -4.4477  -4.0811  -3.3555  -3.2489  -2.2786
    -2.2010  -2.0172  -1.6865  -1.3748   1.3531   2.6586   2.9847   5.7500
     6.4090   7.6653

          k = 0.0000 0.4330 0.1526 (  3389 PWs)   bands (ev):

  -122.5759-121.6350 -77.6414 -76.6389 -76.1961 -76.1958 -75.3476 -75.3473
    -9.5765  -7.2240  -4.5781  -4.4524  -4.0839  -3.3588  -3.2574  -2.2821
    -2.2027  -2.0138  -1.6881  -1.3865   1.2743   2.7082   2.9968   5.9969
     6.4615   7.5942

          k = 0.0000 0.4330 0.2288 (  3368 PWs)   bands (ev):

  -122.5759-121.6350 -77.6406 -76.6381 -76.1954 -76.1953 -75.3469 -75.3468
    -9.5739  -7.2222  -4.5712  -4.4475  -4.0809  -3.3532  -3.2510  -2.2745
    -2.2003  -1.9984  -1.6825  -1.3868   1.2124   2.7545   3.0129   6.2382
     6.4760   7.5325

          k = 0.0000 0.4330-0.3051 (  3362 PWs)   bands (ev):

  -122.5759-121.6350 -77.6403 -76.6378 -76.1954 -76.1950 -75.3469 -75.3465
    -9.5725  -7.2209  -4.5694  -4.4464  -4.0773  -3.3541  -3.2545  -2.2737
    -2.1973  -1.9917  -1.6807  -1.3905   1.1923   2.7807   3.0173   6.0746
     6.6846   7.5103

          k = 0.0000-0.5774 0.0000 (  3402 PWs)   bands (ev):

  -122.5759-121.6350 -77.6415 -76.6390 -76.1967 -76.1966 -75.3482 -75.3481
    -9.5272  -7.2149  -4.5897  -4.4583  -4.0141  -3.3740  -3.2548  -2.3028
    -2.1987  -2.0212  -1.6585  -1.3991   1.1481   2.7690   2.8262   5.6878
     5.9134   7.6934

          k = 0.0000-0.5774 0.0763 (  3398 PWs)   bands (ev):

  -122.5759-121.6350 -77.6415 -76.6390 -76.1966 -76.1962 -75.3480 -75.3477
    -9.5274  -7.2155  -4.5851  -4.4579  -4.0161  -3.3718  -3.2532  -2.2945
    -2.2017  -2.0174  -1.6618  -1.3906   1.1148   2.7669   2.8327   5.6642
     6.1022   7.6613

          k = 0.0000-0.5774 0.1526 (  3388 PWs)   bands (ev):

  -122.5759-121.6350 -77.6410 -76.6386 -76.1965 -76.1959 -75.3480 -75.3473
    -9.5257  -7.2150  -4.5800  -4.4524  -4.0148  -3.3663  -3.2522  -2.2949
    -2.2001  -2.0066  -1.6611  -1.3896   1.0383   2.7541   2.8470   5.7781
     6.3976   7.5890

          k = 0.0000-0.5774 0.2288 (  3374 PWs)   bands (ev):

  -122.5759-121.6350 -77.6402 -76.6377 -76.1964 -76.1956 -75.3479 -75.3471
    -9.5232  -7.2123  -4.5758  -4.4482  -4.0101  -3.3609  -3.2534  -2.2955
    -2.1962  -1.9913  -1.6583  -1.3869   0.9673   2.7338   2.8625   6.0476
     6.5289   7.5209

          k = 0.0000-0.5774-0.3051 (  3392 PWs)   bands (ev):

  -122.5759-121.6350 -77.6410 -76.6385 -76.1974 -76.1959 -75.3489 -75.3474
    -9.5240  -7.2135  -4.5806  -4.4569  -4.0168  -3.3690  -3.2586  -2.3007
    -2.2048  -1.9901  -1.6642  -1.3924   0.9365   2.7218   2.8664   6.3392
     6.3835   7.4877

          k = 0.1250 0.2165 0.0000 (  3377 PWs)   bands (ev):

  -122.5759-121.6350 -77.6410 -76.6385 -76.1951 -76.1950 -75.3466 -75.3465
    -9.7346  -7.2486  -4.5416  -4.4413  -4.2678  -3.3066  -3.2489  -2.2547
    -2.2164  -1.9833  -1.7628  -1.5143   2.1038   2.6496   3.3658   6.1950
     6.9883   7.5677

          k = 0.1250 0.2165 0.0763 (  3388 PWs)   bands (ev):

  -122.5759-121.6350 -77.6410 -76.6386 -76.1958 -76.1954 -75.3473 -75.3469
    -9.7333  -7.2502  -4.5402  -4.4481  -4.2665  -3.3080  -3.2571  -2.2615
    -2.2231  -1.9879  -1.7694  -1.5307   2.1291   2.6784   3.3688   6.1279
     7.0143   7.5448

          k = 0.1250 0.2165 0.1526 (  3384 PWs)   bands (ev):

  -122.5759-121.6350 -77.6409 -76.6384 -76.1955 -76.1955 -75.3469 -75.3469
    -9.7303  -7.2525  -4.5409  -4.4450  -4.2657  -3.3106  -3.2571  -2.2557
    -2.2259  -1.9869  -1.7720  -1.5557   2.1860   2.7566   3.3858   6.0078
     7.0079   7.4938

          k = 0.1250 0.2165 0.2288 (  3391 PWs)   bands (ev):

  -122.5759-121.6350 -77.6413 -76.6388 -76.1957 -76.1953 -75.3472 -75.3468
    -9.7280  -7.2563  -4.5429  -4.4473  -4.2679  -3.3125  -3.2627  -2.2586
    -2.2241  -1.9921  -1.7710  -1.5850   2.2350   2.8430   3.4046   5.9295
     6.9188   7.4395

          k = 0.1250 0.2165-0.3051 (  3386 PWs)   bands (ev):

  -122.5759-121.6350 -77.6408 -76.6384 -76.1953 -76.1953 -75.3468 -75.3468
    -9.7260  -7.2544  -4.5442  -4.4449  -4.2671  -3.3139  -3.2608  -2.2555
    -2.2227  -1.9871  -1.7696  -1.5906   2.2540   2.8808   3.4146   5.9112
     6.8592   7.4178

          k = 0.1250 0.3608 0.0000 (  3383 PWs)   bands (ev):

  -122.5759-121.6350 -77.6413 -76.6388 -76.1958 -76.1955 -75.3473 -75.3470
    -9.6152  -7.2285  -4.5602  -4.4580  -4.1287  -3.3434  -3.2538  -2.2629
    -2.2192  -2.0224  -1.7043  -1.3774   1.7267   2.5337   2.8165   5.7490
     6.8415   7.4537

          k = 0.1250 0.3608 0.0763 (  3376 PWs)   bands (ev):

  -122.5759-121.6350 -77.6408 -76.6383 -76.1956 -76.1954 -75.3471 -75.3469
    -9.6138  -7.2279  -4.5589  -4.4558  -4.1250  -3.3404  -3.2546  -2.2613
    -2.2172  -2.0181  -1.7026  -1.3809   1.6853   2.5623   2.8413   5.8716
     6.8116   7.4064

          k = 0.1250 0.3608 0.1526 (  3376 PWs)   bands (ev):

  -122.5759-121.6350 -77.6409 -76.6384 -76.1956 -76.1952 -75.3471 -75.3467
    -9.6121  -7.2294  -4.5601  -4.4559  -4.1255  -3.3428  -3.2551  -2.2641
    -2.2123  -2.0144  -1.6993  -1.3972   1.6056   2.6301   2.8887   6.0356
     6.8373   7.3206

          k = 0.1250 0.3608 0.2288 (  3374 PWs)   bands (ev):

  -122.5759-121.6350 -77.6406 -76.6381 -76.1957 -76.1951 -75.3472 -75.3466
    -9.6094  -7.2289  -4.5595  -4.4570  -4.1225  -3.3441  -3.2604  -2.2669
    -2.2102  -2.0065  -1.6978  -1.4119   1.5459   2.6835   2.9330   6.2572
     6.7508   7.2642

          k = 0.1250 0.3608-0.3051 (  3378 PWs)   bands (ev):

  -122.5759-121.6350 -77.6407 -76.6382 -76.1959 -76.1952 -75.3473 -75.3467
    -9.6085  -7.2284  -4.5593  -4.4610  -4.1248  -3.3449  -3.2646  -2.2675
    -2.2125  -2.0026  -1.7003  -1.4170   1.5269   2.7084   2.9465   6.2372
     6.7992   7.2493

          k = 0.1250 0.5052 0.0000 (  3389 PWs)   bands (ev):

  -122.5759-121.6350 -77.6411 -76.6386 -76.1965 -76.1957 -75.3480 -75.3472
    -9.5279  -7.2134  -4.5750  -4.4655  -4.0077  -3.3664  -3.2549  -2.2791
    -2.2142  -2.0308  -1.6590  -1.3466   1.2720   2.4890   2.7751   5.6732
     6.2741   7.4156

          k = 0.1250 0.5052 0.0763 (  3391 PWs)   bands (ev):

  -122.5759-121.6350 -77.6414 -76.6389 -76.1966 -76.1955 -75.3481 -75.3470
    -9.5282  -7.2151  -4.5730  -4.4656  -4.0126  -3.3648  -3.2563  -2.2795
    -2.2129  -2.0306  -1.6590  -1.3479   1.2367   2.4876   2.7756   5.8306
     6.2923   7.3585

          k = 0.1250 0.5052 0.1526 (  3382 PWs)   bands (ev):

  -122.5759-121.6350 -77.6411 -76.6387 -76.1963 -76.1953 -75.3478 -75.3467
    -9.5265  -7.2140  -4.5705  -4.4648  -4.0119  -3.3622  -3.2583  -2.2756
    -2.2096  -2.0186  -1.6564  -1.3431   1.1621   2.4916   2.7756   6.0476
     6.4973   7.2542

          k = 0.1250 0.5052 0.2288 (  3380 PWs)   bands (ev):

  -122.5759-121.6350 -77.6407 -76.6383 -76.1963 -76.1956 -75.3478 -75.3471
    -9.5243  -7.2116  -4.5673  -4.4688  -4.0096  -3.3612  -3.2643  -2.2778
    -2.2106  -2.0042  -1.6589  -1.3451   1.0947   2.4986   2.7682   6.3129
     6.6324   7.2062

          k = 0.1250 0.5052-0.3051 (  3374 PWs)   bands (ev):

  -122.5759-121.6350 -77.6405 -76.6380 -76.1961 -76.1954 -75.3476 -75.3469
    -9.5239  -7.2117  -4.5622  -4.4660  -4.0109  -3.3562  -3.2624  -2.2786
    -2.2083  -1.9997  -1.6572  -1.3466   1.0710   2.5046   2.7651   6.3535
     6.6915   7.2496

          k = 0.2500 0.4330 0.0000 (  3384 PWs)   bands (ev):

  -122.5759-121.6350 -77.6413 -76.6388 -76.1960 -76.1955 -75.3475 -75.3470
    -9.5297  -7.2147  -4.5512  -4.4857  -4.0132  -3.3531  -3.2634  -2.2564
    -2.2326  -2.0418  -1.6588  -1.3017   1.5032   2.0702   2.7749   5.7539
     6.5691   7.1224

          k = 0.2500 0.4330 0.0763 (  3379 PWs)   bands (ev):

  -122.5759-121.6350 -77.6411 -76.6386 -76.1960 -76.1952 -75.3475 -75.3466
    -9.5285  -7.2133  -4.5553  -4.4809  -4.0099  -3.3566  -3.2616  -2.2537
    -2.2300  -2.0364  -1.6560  -1.3011   1.4690   2.0716   2.7848   5.8255
     6.6518   7.0742

          k = 0.2500 0.4330 0.1526 (  3381 PWs)   bands (ev):

  -122.5759-121.6350 -77.6412 -76.6388 -76.1959 -76.1952 -75.3474 -75.3466
    -9.5275  -7.2134  -4.5543  -4.4819  -4.0120  -3.3567  -3.2658  -2.2545
    -2.2258  -2.0287  -1.6558  -1.3045   1.3911   2.0766   2.7967   6.0422
     6.7818   7.0202

          k = 0.2500 0.4330 0.2288 (  3379 PWs)   bands (ev):

  -122.5759-121.6350 -77.6406 -76.6382 -76.1958 -76.1957 -75.3473 -75.3472
    -9.5252  -7.2113  -4.5487  -4.4822  -4.0089  -3.3531  -3.2706  -2.2590
    -2.2289  -2.0157  -1.6581  -1.3118   1.3191   2.0859   2.7990   6.3535
     6.7486   7.0944

          k = 0.2500 0.4330-0.3051 (  3378 PWs)   bands (ev):

  -122.5759-121.6350 -77.6406 -76.6381 -76.1959 -76.1956 -75.3473 -75.3471
    -9.5246  -7.2107  -4.5480  -4.4859  -4.0092  -3.3530  -3.2740  -2.2621
    -2.2249  -2.0105  -1.6551  -1.3141   1.2907   2.0902   2.7968   6.5310
     6.7342   7.0878

          k = 0.2500 0.5774 0.0000 (  3376 PWs)   bands (ev):

  -122.5759-121.6350 -77.6409 -76.6384 -76.1961 -76.1950 -75.3476 -75.3465
    -9.4927  -7.2064  -4.5446  -4.4963  -3.9535  -3.3565  -3.2639  -2.2553
    -2.2341  -2.0399  -1.6447  -1.2654   1.3928   1.8376   2.8481   5.8642
     6.3227   6.9873

          k = 0.2500 0.5774 0.0763 (  3399 PWs)   bands (ev):

  -122.5759-121.6350 -77.6418 -76.6393 -76.1968 -76.1957 -75.3483 -75.3472
    -9.4936  -7.2084  -4.5525  -4.5037  -3.9592  -3.3650  -3.2722  -2.2631
    -2.2403  -2.0421  -1.6505  -1.2729   1.3649   1.8299   2.8298   5.9574
     6.4180   6.9194

          k = 0.2500 0.5774 0.1526 (  3383 PWs)   bands (ev):

  -122.5759-121.6350 -77.6409 -76.6385 -76.1960 -76.1958 -75.3474 -75.3473
    -9.4919  -7.2066  -4.5383  -4.5008  -3.9587  -3.3542  -3.2706  -2.2600
    -2.2357  -2.0293  -1.6470  -1.2698   1.3049   1.8257   2.7937   6.2054
     6.6177   6.8400

          k = 0.2500 0.5774 0.2288 (  3379 PWs)   bands (ev):

  -122.5759-121.6350 -77.6405 -76.6380 -76.1962 -76.1958 -75.3476 -75.3473
    -9.4901  -7.2041  -4.5386  -4.4962  -3.9583  -3.3538  -3.2702  -2.2641
    -2.2324  -2.0152  -1.6482  -1.2713   1.2386   1.8298   2.7573   6.4437
     6.6474   7.0306

          k = 0.2500 0.5774-0.3051 (  3386 PWs)   bands (ev):

  -122.5759-121.6350 -77.6408 -76.6384 -76.1964 -76.1959 -75.3479 -75.3473
    -9.4899  -7.2038  -4.5440  -4.4969  -3.9584  -3.3590  -3.2779  -2.2630
    -2.2345  -2.0119  -1.6496  -1.2714   1.2096   1.8312   2.7410   6.4615
     6.7376   7.1503

          k = 0.0000-0.1443 0.0763 (  3385 PWs)   bands (ev):

  -122.5759-121.6350 -77.6408 -76.6383 -76.1954 -76.1953 -75.3469 -75.3468
    -9.8149  -7.2641  -4.5156  -4.4360  -4.3591  -3.2749  -3.2554  -2.2459
    -2.2363  -1.9334  -1.8199  -1.6725   2.0204   3.3627   3.8279   6.2185
     7.1460   7.5346

          k = 0.0000-0.1443 0.1526 (  3393 PWs)   bands (ev):

  -122.5759-121.6350 -77.6408 -76.6384 -76.1960 -76.1952 -75.3475 -75.3467
    -9.8115  -7.2682  -4.5180  -4.4382  -4.3605  -3.2814  -3.2575  -2.2500
    -2.2369  -1.9471  -1.8210  -1.7057   2.2269   3.3580   3.8370   5.8450
     7.2025   7.5068

          k = 0.0000-0.1443 0.2288 (  3397 PWs)   bands (ev):

  -122.5759-121.6350 -77.6410 -76.6385 -76.1960 -76.1952 -75.3475 -75.3467
    -9.8089  -7.2746  -4.5173  -4.4353  -4.3621  -3.2828  -3.2593  -2.2487
    -2.2396  -1.9630  -1.8237  -1.7328   2.4643   3.3346   3.8479   5.5463
     7.1661   7.4775

          k = 0.0000-0.2887 0.0763 (  3376 PWs)   bands (ev):

  -122.5759-121.6350 -77.6407 -76.6382 -76.1955 -76.1951 -75.3469 -75.3466
    -9.6985  -7.2434  -4.5473  -4.4399  -4.2283  -3.3148  -3.2514  -2.2644
    -2.2126  -1.9963  -1.7502  -1.4804   2.0221   2.5341   3.3766   5.7291
     7.1612   7.6488

          k = 0.0000-0.2887 0.1526 (  3388 PWs)   bands (ev):

  -122.5759-121.6350 -77.6413 -76.6388 -76.1957 -76.1955 -75.3471 -75.3470
    -9.6962  -7.2458  -4.5535  -4.4469  -4.2311  -3.3250  -3.2594  -2.2643
    -2.2189  -1.9939  -1.7552  -1.5038   1.9827   2.6919   3.3842   5.6423
     7.1907   7.5973

          k = 0.0000-0.2887 0.2288 (  3387 PWs)   bands (ev):

  -122.5759-121.6350 -77.6413 -76.6388 -76.1956 -76.1954 -75.3470 -75.3469
    -9.6937  -7.2486  -4.5555  -4.4437  -4.2307  -3.3290  -3.2585  -2.2644
    -2.2181  -1.9931  -1.7541  -1.5284   1.9616   2.8160   3.3975   5.7075
     7.0181   7.5477

          k = 0.0000-0.4330 0.0763 (  3380 PWs)   bands (ev):

  -122.5759-121.6350 -77.6408 -76.6384 -76.1957 -76.1957 -75.3472 -75.3471
    -9.5774  -7.2221  -4.5740  -4.4478  -4.0804  -3.3577  -3.2497  -2.2806
    -2.2008  -2.0166  -1.6849  -1.3782   1.3641   2.6907   2.9833   5.4068
     6.7037   7.6725

          k = 0.0000-0.4330 0.1526 (  3389 PWs)   bands (ev):

  -122.5759-121.6350 -77.6414 -76.6389 -76.1961 -76.1958 -75.3476 -75.3473
    -9.5765  -7.2238  -4.5764  -4.4532  -4.0852  -3.3617  -3.2561  -2.2837
    -2.2035  -2.0111  -1.6866  -1.3900   1.2883   2.7519   2.9947   5.4686
     6.8997   7.6031

          k = 0.0000-0.4330 0.2288 (  3368 PWs)   bands (ev):

  -122.5759-121.6350 -77.6406 -76.6381 -76.1954 -76.1953 -75.3469 -75.3468
    -9.5738  -7.2226  -4.5695  -4.4456  -4.0806  -3.3539  -3.2537  -2.2763
    -2.1996  -1.9982  -1.6829  -1.3900   1.2226   2.7833   3.0111   5.7243
     6.9068   7.5403

          k =-0.1250-0.3608 0.0763 (  3376 PWs)   bands (ev):

  -122.5759-121.6350 -77.6408 -76.6383 -76.1956 -76.1954 -75.3471 -75.3469
    -9.6138  -7.2281  -4.5580  -4.4561  -4.1244  -3.3413  -3.2533  -2.2631
    -2.2168  -2.0184  -1.7028  -1.3829   1.6916   2.5925   2.8245   5.6793
     6.9798   7.4355

          k =-0.1250-0.3608 0.1526 (  3376 PWs)   bands (ev):

  -122.5759-121.6350 -77.6409 -76.6384 -76.1956 -76.1952 -75.3471 -75.3467
    -9.6121  -7.2295  -4.5584  -4.4540  -4.1260  -3.3441  -3.2569  -2.2663
    -2.2122  -2.0139  -1.7006  -1.3989   1.6145   2.6712   2.8680   5.7325
     7.0964   7.3730

          k =-0.1250-0.3608 0.2288 (  3374 PWs)   bands (ev):

  -122.5759-121.6350 -77.6406 -76.6381 -76.1957 -76.1951 -75.3472 -75.3466
    -9.6094  -7.2289  -4.5592  -4.4560  -4.1235  -3.3441  -3.2605  -2.2676
    -2.2103  -2.0069  -1.6986  -1.4123   1.5521   2.7075   2.9227   5.9450
     7.0342   7.2971

          k =-0.1250-0.5052 0.0763 (  3391 PWs)   bands (ev):

  -122.5759-121.6350 -77.6414 -76.6389 -76.1966 -76.1955 -75.3481 -75.3470
    -9.5282  -7.2150  -4.5724  -4.4653  -4.0135  -3.3654  -3.2566  -2.2815
    -2.2130  -2.0290  -1.6581  -1.3483   1.2418   2.4910   2.7811   5.6321
     6.4618   7.3869

          k =-0.1250-0.5052 0.1526 (  3382 PWs)   bands (ev):

  -122.5759-121.6350 -77.6411 -76.6387 -76.1963 -76.1953 -75.3478 -75.3467
    -9.5265  -7.2140  -4.5695  -4.4643  -4.0125  -3.3628  -3.2590  -2.2770
    -2.2088  -2.0178  -1.6561  -1.3455   1.1698   2.4967   2.7826   5.7728
     6.7051   7.3180

          k =-0.1250-0.5052 0.2288 (  3380 PWs)   bands (ev):

  -122.5759-121.6350 -77.6407 -76.6383 -76.1963 -76.1956 -75.3478 -75.3471
    -9.5243  -7.2117  -4.5672  -4.4686  -4.0096  -3.3608  -3.2647  -2.2787
    -2.2097  -2.0038  -1.6587  -1.3473   1.1001   2.5023   2.7724   6.0597
     6.7964   7.2860

     highest occupied level (ev):     7.6957

!    total energy              =    -839.67335998 Ry
     estimated scf accuracy    <          2.4E-10 Ry

     The total energy is the sum of the following terms:
     one-electron contribution =    -843.64864272 Ry
     hartree contribution      =     422.75348012 Ry
     xc contribution           =     -82.59329268 Ry
     ewald contribution        =    -336.18490469 Ry

     convergence has been achieved in  12 iterations

     Writing all to output data dir ./SCRATCH/zns_w.save/

     init_run     :      3.02s CPU      3.20s WALL (       1 calls)
     electrons    :    148.16s CPU    149.33s WALL (       1 calls)

     Called by init_run:
     wfcinit      :      2.89s CPU      3.08s WALL (       1 calls)
     potinit      :      0.06s CPU      0.06s WALL (       1 calls)
     hinit0       :      0.03s CPU      0.04s WALL (       1 calls)

     Called by electrons:
     c_bands      :    136.89s CPU    137.98s WALL (      12 calls)
     sum_band     :     11.02s CPU     11.03s WALL (      12 calls)
     v_of_rho     :      0.25s CPU      0.31s WALL (      13 calls)
     mix_rho      :      0.02s CPU      0.04s WALL (      12 calls)

     Called by c_bands:
     init_us_2    :      1.11s CPU      1.29s WALL (    1625 calls)
     init_us_2:cp :      1.11s CPU      1.28s WALL (    1625 calls)
     cegterg      :    133.52s CPU    134.81s WALL (     780 calls)

     Called by *egterg:
     cdiaghg      :      2.91s CPU      2.90s WALL (    5058 calls)
     h_psi        :     93.56s CPU     94.19s WALL (    5123 calls)
     g_psi        :      0.55s CPU      0.45s WALL (    4278 calls)

     Called by h_psi:
     h_psi:calbec :     13.47s CPU     12.87s WALL (    5123 calls)
     vloc_psi     :     70.53s CPU     71.60s WALL (    5123 calls)
     add_vuspsi   :      9.27s CPU      9.17s WALL (    5123 calls)

     General routines
     calbec       :     13.45s CPU     12.85s WALL (    5123 calls)
     fft          :      0.06s CPU      0.10s WALL (     129 calls)
     ffts         :      0.03s CPU      0.01s WALL (      12 calls)
     fftw         :     72.91s CPU     72.95s WALL (  160162 calls)


     PWSCF        :   2m31.20s CPU   2m32.61s WALL


   This run was terminated on:  12:52:36   9Jun2024            

=------------------------------------------------------------------------------=
   JOB DONE.
=------------------------------------------------------------------------------=
