
     Program PWSCF v.7.2 starts on  9Jun2024 at 12:52:36 

     This program is part of the open-source Quantum ESPRESSO suite
     for quantum simulation of materials; please cite
         "P. Giannozzi et al., J. Phys.:Condens. Matter 21 395502 (2009);
         "P. Giannozzi et al., J. Phys.:Condens. Matter 29 465901 (2017);
         "P. Giannozzi et al., J. Chem. Phys. 152 154105 (2020);
          URL http://www.quantum-espresso.org", 
     in publications or presentations arising from this work. More details at
     http://www.quantum-espresso.org/quote

     Serial version
     8504 MiB available memory on the printing compute node when the environment starts

     Waiting for input...
     Reading input from standard input

     Current dimensions of program PWSCF are:
     Max number of different atomic species (ntypx) = 10
     Max number of k-points (npk) =  40000
     Max angular momentum in pseudopotentials (lmaxx) =  4


     G-vector sticks info
     --------------------
     sticks:   dense  smooth     PW     G-vecs:    dense   smooth      PW
     Sum         913     913    253                35591    35591    5601

     Using Slab Decomposition



     bravais-lattice index     =            4
     lattice parameter (alat)  =       7.3631  a.u.
     unit-cell volume          =     566.5376 (a.u.)^3
     number of atoms/cell      =            4
     number of atomic types    =            2
     number of electrons       =        52.00
     number of Kohn-Sham states=           26
     kinetic-energy cutoff     =      60.0000  Ry
     charge density cutoff     =     240.0000  Ry
     scf convergence threshold =      1.0E-08
     mixing beta               =       0.7000
     number of iterations used =            8  plain     mixing
     Exchange-correlation= PBE
                           (   1   4   3   4   0   0   0)

     celldm(1)=   7.363128  celldm(2)=   0.000000  celldm(3)=   1.638743
     celldm(4)=   0.000000  celldm(5)=   0.000000  celldm(6)=   0.000000

     crystal axes: (cart. coord. in units of alat)
               a(1) = (   1.000000   0.000000   0.000000 )  
               a(2) = (  -0.500000   0.866025   0.000000 )  
               a(3) = (   0.000000   0.000000   1.638743 )  

     reciprocal axes: (cart. coord. in units 2 pi/alat)
               b(1) = (  1.000000  0.577350 -0.000000 )  
               b(2) = (  0.000000  1.154701  0.000000 )  
               b(3) = (  0.000000 -0.000000  0.610224 )  


     PseudoPot. # 1 for Zn read from file:
     /home/paolo/project_labqsm/pseudopotentials/Zn_ONCV_PBE-1.2.upf
     MD5 check sum: 732f41c0cd6489a4b50a33b4ec99a2d3
     Pseudo is Norm-conserving, Zval = 20.0
     Generated using ONCVPSP code by D. R. Hamann
     Using radial grid of  602 points,  6 beta functions with: 
                l(1) =   0
                l(2) =   0
                l(3) =   1
                l(4) =   1
                l(5) =   2
                l(6) =   2

     PseudoPot. # 2 for S  read from file:
     /home/paolo/project_labqsm/pseudopotentials/S_ONCV_PBE-1.2.upf
     MD5 check sum: f9d020296ee6110346977bfd66d424f6
     Pseudo is Norm-conserving, Zval =  6.0
     Generated using ONCVPSP code by D. R. Hamann
     Using radial grid of  602 points,  4 beta functions with: 
                l(1) =   0
                l(2) =   0
                l(3) =   1
                l(4) =   1

     atomic species   valence    mass     pseudopotential
        Zn            20.00    65.38000     Zn( 1.00)
        S              6.00    32.06000     S ( 1.00)

      6 Sym. Ops. (no inversion) found



   Cartesian axes

     site n.     atom                  positions (alat units)
         1           Zn  tau(   1) = (   0.0000000   0.0000000   0.0000000  )
         2           S   tau(   2) = (   0.0000000   0.0000000   0.3723729  )
         3           Zn  tau(   3) = (   0.0000000   0.5773503   0.5000000  )
         4           S   tau(   4) = (   0.0000000   0.5773503   0.8723729  )

     number of k points=    65
                       cart. coord. in units 2pi/alat
        k(    1) = (   0.0000000   0.0000000   0.0000000), wk =   0.0039062
        k(    2) = (   0.0000000   0.0000000   0.0762780), wk =   0.0078125
        k(    3) = (   0.0000000   0.0000000   0.1525559), wk =   0.0078125
        k(    4) = (   0.0000000   0.0000000   0.2288339), wk =   0.0078125
        k(    5) = (   0.0000000   0.0000000  -0.3051118), wk =   0.0039062
        k(    6) = (   0.0000000   0.1443376   0.0000000), wk =   0.0234375
        k(    7) = (   0.0000000   0.1443376   0.0762780), wk =   0.0234375
        k(    8) = (   0.0000000   0.1443376   0.1525559), wk =   0.0234375
        k(    9) = (   0.0000000   0.1443376   0.2288339), wk =   0.0234375
        k(   10) = (   0.0000000   0.1443376  -0.3051118), wk =   0.0234375
        k(   11) = (   0.0000000   0.2886751   0.0000000), wk =   0.0234375
        k(   12) = (   0.0000000   0.2886751   0.0762780), wk =   0.0234375
        k(   13) = (   0.0000000   0.2886751   0.1525559), wk =   0.0234375
        k(   14) = (   0.0000000   0.2886751   0.2288339), wk =   0.0234375
        k(   15) = (   0.0000000   0.2886751  -0.3051118), wk =   0.0234375
        k(   16) = (   0.0000000   0.4330127   0.0000000), wk =   0.0234375
        k(   17) = (   0.0000000   0.4330127   0.0762780), wk =   0.0234375
        k(   18) = (   0.0000000   0.4330127   0.1525559), wk =   0.0234375
        k(   19) = (   0.0000000   0.4330127   0.2288339), wk =   0.0234375
        k(   20) = (   0.0000000   0.4330127  -0.3051118), wk =   0.0234375
        k(   21) = (   0.0000000  -0.5773503   0.0000000), wk =   0.0117188
        k(   22) = (   0.0000000  -0.5773503   0.0762780), wk =   0.0234375
        k(   23) = (   0.0000000  -0.5773503   0.1525559), wk =   0.0234375
        k(   24) = (   0.0000000  -0.5773503   0.2288339), wk =   0.0234375
        k(   25) = (   0.0000000  -0.5773503  -0.3051118), wk =   0.0117188
        k(   26) = (   0.1250000   0.2165064   0.0000000), wk =   0.0234375
        k(   27) = (   0.1250000   0.2165064   0.0762780), wk =   0.0468750
        k(   28) = (   0.1250000   0.2165064   0.1525559), wk =   0.0468750
        k(   29) = (   0.1250000   0.2165064   0.2288339), wk =   0.0468750
        k(   30) = (   0.1250000   0.2165064  -0.3051118), wk =   0.0234375
        k(   31) = (   0.1250000   0.3608439   0.0000000), wk =   0.0468750
        k(   32) = (   0.1250000   0.3608439   0.0762780), wk =   0.0468750
        k(   33) = (   0.1250000   0.3608439   0.1525559), wk =   0.0468750
        k(   34) = (   0.1250000   0.3608439   0.2288339), wk =   0.0468750
        k(   35) = (   0.1250000   0.3608439  -0.3051118), wk =   0.0468750
        k(   36) = (   0.1250000   0.5051815   0.0000000), wk =   0.0468750
        k(   37) = (   0.1250000   0.5051815   0.0762780), wk =   0.0468750
        k(   38) = (   0.1250000   0.5051815   0.1525559), wk =   0.0468750
        k(   39) = (   0.1250000   0.5051815   0.2288339), wk =   0.0468750
        k(   40) = (   0.1250000   0.5051815  -0.3051118), wk =   0.0468750
        k(   41) = (   0.2500000   0.4330127   0.0000000), wk =   0.0234375
        k(   42) = (   0.2500000   0.4330127   0.0762780), wk =   0.0468750
        k(   43) = (   0.2500000   0.4330127   0.1525559), wk =   0.0468750
        k(   44) = (   0.2500000   0.4330127   0.2288339), wk =   0.0468750
        k(   45) = (   0.2500000   0.4330127  -0.3051118), wk =   0.0234375
        k(   46) = (   0.2500000   0.5773503   0.0000000), wk =   0.0234375
        k(   47) = (   0.2500000   0.5773503   0.0762780), wk =   0.0468750
        k(   48) = (   0.2500000   0.5773503   0.1525559), wk =   0.0468750
        k(   49) = (   0.2500000   0.5773503   0.2288339), wk =   0.0468750
        k(   50) = (   0.2500000   0.5773503  -0.3051118), wk =   0.0234375
        k(   51) = (   0.0000000  -0.1443376   0.0762780), wk =   0.0234375
        k(   52) = (   0.0000000  -0.1443376   0.1525559), wk =   0.0234375
        k(   53) = (   0.0000000  -0.1443376   0.2288339), wk =   0.0234375
        k(   54) = (   0.0000000  -0.2886751   0.0762780), wk =   0.0234375
        k(   55) = (   0.0000000  -0.2886751   0.1525559), wk =   0.0234375
        k(   56) = (   0.0000000  -0.2886751   0.2288339), wk =   0.0234375
        k(   57) = (   0.0000000  -0.4330127   0.0762780), wk =   0.0234375
        k(   58) = (   0.0000000  -0.4330127   0.1525559), wk =   0.0234375
        k(   59) = (   0.0000000  -0.4330127   0.2288339), wk =   0.0234375
        k(   60) = (  -0.1250000  -0.3608439   0.0762780), wk =   0.0468750
        k(   61) = (  -0.1250000  -0.3608439   0.1525559), wk =   0.0468750
        k(   62) = (  -0.1250000  -0.3608439   0.2288339), wk =   0.0468750
        k(   63) = (  -0.1250000  -0.5051815   0.0762780), wk =   0.0468750
        k(   64) = (  -0.1250000  -0.5051815   0.1525559), wk =   0.0468750
        k(   65) = (  -0.1250000  -0.5051815   0.2288339), wk =   0.0468750

     Dense  grid:    35591 G-vectors     FFT dimensions: (  40,  40,  60)

     Estimated max dynamical RAM per process >     152.11 MB

     Initial potential from superposition of free atoms

     starting charge      51.9339, renormalised to      52.0000
     Starting wfcs are random

     total cpu time spent up to now is        4.6 secs

     Self-consistent Calculation

     iteration #  1     ecut=    60.00 Ry     beta= 0.70
     Davidson diagonalization with overlap
     ethr =  1.00E-02,  avg # of iterations = 15.2

     total cpu time spent up to now is       63.7 secs

     total energy              =    -839.21227033 Ry
     estimated scf accuracy    <       1.24704427 Ry

     iteration #  2     ecut=    60.00 Ry     beta= 0.70
     Davidson diagonalization with overlap
     ethr =  2.40E-03,  avg # of iterations =  8.5

     total cpu time spent up to now is       81.4 secs

     total energy              =    -838.58345030 Ry
     estimated scf accuracy    <       7.40298036 Ry

     iteration #  3     ecut=    60.00 Ry     beta= 0.70
     Davidson diagonalization with overlap
     ethr =  2.40E-03,  avg # of iterations =  6.4

     total cpu time spent up to now is       97.3 secs

     total energy              =    -839.86797918 Ry
     estimated scf accuracy    <       0.36519593 Ry

     iteration #  4     ecut=    60.00 Ry     beta= 0.70
     Davidson diagonalization with overlap
     ethr =  7.02E-04,  avg # of iterations =  2.0

     total cpu time spent up to now is      109.2 secs

     total energy              =    -839.88222200 Ry
     estimated scf accuracy    <       0.08885507 Ry

     iteration #  5     ecut=    60.00 Ry     beta= 0.70
     Davidson diagonalization with overlap
     ethr =  1.71E-04,  avg # of iterations =  3.8

     total cpu time spent up to now is      121.4 secs

     total energy              =    -839.88845754 Ry
     estimated scf accuracy    <       0.01229850 Ry

     iteration #  6     ecut=    60.00 Ry     beta= 0.70
     Davidson diagonalization with overlap
     ethr =  2.37E-05,  avg # of iterations =  4.5

     total cpu time spent up to now is      134.2 secs

     total energy              =    -839.89042772 Ry
     estimated scf accuracy    <       0.00111352 Ry

     iteration #  7     ecut=    60.00 Ry     beta= 0.70
     Davidson diagonalization with overlap
     ethr =  2.14E-06,  avg # of iterations =  4.9

     total cpu time spent up to now is      148.9 secs

     total energy              =    -839.89074869 Ry
     estimated scf accuracy    <       0.00029473 Ry

     iteration #  8     ecut=    60.00 Ry     beta= 0.70
     Davidson diagonalization with overlap
     ethr =  5.67E-07,  avg # of iterations =  3.7

     total cpu time spent up to now is      161.2 secs

     total energy              =    -839.89078133 Ry
     estimated scf accuracy    <       0.00002117 Ry

     iteration #  9     ecut=    60.00 Ry     beta= 0.70
     Davidson diagonalization with overlap
     ethr =  4.07E-08,  avg # of iterations =  5.1

     total cpu time spent up to now is      175.3 secs

     total energy              =    -839.89078753 Ry
     estimated scf accuracy    <       0.00000158 Ry

     iteration # 10     ecut=    60.00 Ry     beta= 0.70
     Davidson diagonalization with overlap
     ethr =  3.04E-09,  avg # of iterations =  4.2

     total cpu time spent up to now is      188.0 secs

     total energy              =    -839.89078778 Ry
     estimated scf accuracy    <       0.00000005 Ry

     iteration # 11     ecut=    60.00 Ry     beta= 0.70
     Davidson diagonalization with overlap
     ethr =  8.79E-11,  avg # of iterations =  4.6

     total cpu time spent up to now is      204.5 secs

     End of self-consistent calculation

          k = 0.0000 0.0000 0.0000 (  4475 PWs)   bands (ev):

  -121.8580-120.9113 -77.1412 -76.1335 -75.6966 -75.6966 -74.8426 -74.8426
    -9.8005  -7.1667  -4.3591  -4.2936  -4.2936  -3.1034  -3.1034  -2.1021
    -2.1021  -1.7398  -1.7027  -1.7027   1.8464   4.0541   4.0541   6.3587
     7.4439   7.4439

          k = 0.0000 0.0000 0.0763 (  4434 PWs)   bands (ev):

  -121.8580-120.9113 -77.1412 -76.1335 -75.6966 -75.6966 -74.8426 -74.8426
    -9.7990  -7.1686  -4.3598  -4.2931  -4.2931  -3.1032  -3.1032  -2.1019
    -2.1019  -1.7604  -1.7025  -1.7025   1.9411   4.0582   4.0582   6.1039
     7.4367   7.4367

          k = 0.0000 0.0000 0.1526 (  4422 PWs)   bands (ev):

  -121.8580-120.9113 -77.1412 -76.1335 -75.6966 -75.6966 -74.8426 -74.8426
    -9.7955  -7.1733  -4.3627  -4.2931  -4.2931  -3.1041  -3.1041  -2.1013
    -2.1013  -1.8086  -1.7020  -1.7020   2.1890   4.0664   4.0664   5.6094
     7.4180   7.4180

          k = 0.0000 0.0000 0.2288 (  4434 PWs)   bands (ev):

  -121.8580-120.9113 -77.1412 -76.1335 -75.6966 -75.6966 -74.8426 -74.8426
    -9.7921  -7.1781  -4.3658  -4.2931  -4.2931  -3.1050  -3.1050  -2.1013
    -2.1013  -1.8544  -1.7020  -1.7020   2.4810   4.0745   4.0745   5.1514
     7.3989   7.3989

          k = 0.0000 0.0000-0.3051 (  4422 PWs)   bands (ev):

  -121.8580-120.9113 -77.1412 -76.1334 -75.6966 -75.6966 -74.8426 -74.8426
    -9.7906  -7.1801  -4.3668  -4.2931  -4.2931  -3.1052  -3.1052  -2.1011
    -2.1011  -1.8725  -1.7017  -1.7017   2.6243   4.0780   4.0780   4.9519
     7.3912   7.3912

          k = 0.0000 0.1443 0.0000 (  4437 PWs)   bands (ev):

  -121.8580-120.9113 -77.1412 -76.1335 -75.6966 -75.6966 -74.8426 -74.8426
    -9.7518  -7.1580  -4.3875  -4.2960  -4.2325  -3.1246  -3.1019  -2.1087
    -2.0953  -1.8235  -1.6772  -1.5582   1.9569   3.3732   3.8370   6.5396
     6.9335   7.5352

          k = 0.0000 0.1443 0.0763 (  4437 PWs)   bands (ev):

  -121.8580-120.9113 -77.1412 -76.1335 -75.6966 -75.6966 -74.8426 -74.8426
    -9.7505  -7.1597  -4.3884  -4.2959  -4.2329  -3.1251  -3.1023  -2.1086
    -2.0951  -1.8295  -1.6770  -1.5704   2.0370   3.3665   3.8417   6.4087
     6.9168   7.5187

          k = 0.0000 0.1443 0.1526 (  4433 PWs)   bands (ev):

  -121.8580-120.9113 -77.1412 -76.1335 -75.6966 -75.6966 -74.8426 -74.8426
    -9.7474  -7.1638  -4.3902  -4.2958  -4.2338  -3.1255  -3.1030  -2.1092
    -2.0948  -1.8461  -1.6767  -1.5960   2.2453   3.3555   3.8518   5.9918
     7.0286   7.4881

          k = 0.0000 0.1443 0.2288 (  4423 PWs)   bands (ev):

  -121.8580-120.9113 -77.1412 -76.1335 -75.6966 -75.6966 -74.8426 -74.8426
    -9.7442  -7.1679  -4.3920  -4.2957  -4.2346  -3.1262  -3.1039  -2.1098
    -2.0944  -1.8648  -1.6763  -1.6166   2.4859   3.3344   3.8612   5.6300
     7.0801   7.4619

          k = 0.0000 0.1443-0.3051 (  4420 PWs)   bands (ev):

  -121.8580-120.9113 -77.1412 -76.1335 -75.6966 -75.6966 -74.8426 -74.8426
    -9.7429  -7.1696  -4.3927  -4.2956  -4.2349  -3.1266  -3.1041  -2.1103
    -2.0943  -1.8732  -1.6763  -1.6239   2.6003   3.3254   3.8644   5.4601
     7.1155   7.4547

          k = 0.0000 0.2887 0.0000 (  4424 PWs)   bands (ev):

  -121.8580-120.9113 -77.1412 -76.1335 -75.6966 -75.6966 -74.8427 -74.8426
    -9.6312  -7.1373  -4.4185  -4.3026  -4.1099  -3.1690  -3.0993  -2.1233
    -2.0786  -1.8917  -1.6118  -1.3625   2.0696   2.4640   3.3832   5.9009
     7.0028   7.6549

          k = 0.0000 0.2887 0.0763 (  4442 PWs)   bands (ev):

  -121.8580-120.9113 -77.1412 -76.1335 -75.6966 -75.6966 -74.8427 -74.8426
    -9.6302  -7.1383  -4.4191  -4.3027  -4.1106  -3.1693  -3.0999  -2.1236
    -2.0789  -1.8923  -1.6120  -1.3725   2.0441   2.5193   3.3886   6.0632
     6.8256   7.6278

          k = 0.0000 0.2887 0.1526 (  4447 PWs)   bands (ev):

  -121.8580-120.9113 -77.1412 -76.1335 -75.6966 -75.6966 -74.8427 -74.8426
    -9.6279  -7.1408  -4.4204  -4.3024  -4.1123  -3.1700  -3.1007  -2.1250
    -2.0787  -1.8928  -1.6118  -1.3966   2.0049   2.6621   3.4008   6.1631
     6.6734   7.5760

          k = 0.0000 0.2887 0.2288 (  4447 PWs)   bands (ev):

  -121.8580-120.9113 -77.1412 -76.1335 -75.6966 -75.6966 -74.8427 -74.8426
    -9.6255  -7.1432  -4.4214  -4.3021  -4.1139  -3.1709  -3.1017  -2.1268
    -2.0785  -1.8929  -1.6115  -1.4201   1.9841   2.7997   3.4122   6.1446
     6.5937   7.5302

          k = 0.0000 0.2887-0.3051 (  4448 PWs)   bands (ev):

  -121.8580-120.9113 -77.1412 -76.1335 -75.6966 -75.6966 -74.8427 -74.8426
    -9.6245  -7.1442  -4.4218  -4.3022  -4.1146  -3.1714  -3.1022  -2.1281
    -2.0783  -1.8926  -1.6114  -1.4300   1.9792   2.8700   3.4163   5.9238
     6.7562   7.5159

          k = 0.0000 0.4330 0.0000 (  4438 PWs)   bands (ev):

  -121.8580-120.9113 -77.1412 -76.1334 -75.6966 -75.6966 -74.8427 -74.8426
    -9.5057  -7.1166  -4.4388  -4.3091  -3.9701  -3.2045  -3.0965  -2.1383
    -2.0623  -1.9305  -1.5410  -1.2492   1.4160   2.6704   2.9920   5.5323
     6.5016   7.6895

          k = 0.0000 0.4330 0.0763 (  4451 PWs)   bands (ev):

  -121.8580-120.9113 -77.1412 -76.1335 -75.6966 -75.6966 -74.8427 -74.8427
    -9.5051  -7.1169  -4.4391  -4.3093  -3.9711  -3.2046  -3.0973  -2.1384
    -2.0626  -1.9278  -1.5412  -1.2512   1.3752   2.6847   2.9975   5.7539
     6.4191   7.6567

          k = 0.0000 0.4330 0.1526 (  4447 PWs)   bands (ev):

  -121.8580-120.9113 -77.1412 -76.1335 -75.6966 -75.6966 -74.8427 -74.8427
    -9.5036  -7.1175  -4.4395  -4.3090  -3.9734  -3.2051  -3.0983  -2.1397
    -2.0624  -1.9193  -1.5409  -1.2588   1.2967   2.7354   3.0108   6.0005
     6.4727   7.5877

          k = 0.0000 0.4330 0.2288 (  4448 PWs)   bands (ev):

  -121.8580-120.9113 -77.1412 -76.1335 -75.6966 -75.6966 -74.8427 -74.8427
    -9.5021  -7.1182  -4.4398  -4.3089  -3.9758  -3.2059  -3.0996  -2.1415
    -2.0621  -1.9101  -1.5406  -1.2679   1.2327   2.7795   3.0238   6.2413
     6.4820   7.5243

          k = 0.0000 0.4330-0.3051 (  4454 PWs)   bands (ev):

  -121.8580-120.9113 -77.1412 -76.1335 -75.6966 -75.6966 -74.8427 -74.8427
    -9.5015  -7.1184  -4.4400  -4.3087  -3.9768  -3.2065  -3.0999  -2.1431
    -2.0622  -1.9055  -1.5406  -1.2734   1.2125   2.8050   3.0290   6.0784
     6.6866   7.5014

          k = 0.0000-0.5774 0.0000 (  4466 PWs)   bands (ev):

  -121.8580-120.9113 -77.1412 -76.1334 -75.6966 -75.6966 -74.8427 -74.8427
    -9.4521  -7.1081  -4.4462  -4.3123  -3.9016  -3.2163  -3.0959  -2.1455
    -2.0561  -1.9388  -1.5100  -1.2448   1.1706   2.7996   2.8414   5.6940
     5.9224   7.6882

          k = 0.0000-0.5774 0.0763 (  4444 PWs)   bands (ev):

  -121.8580-120.9113 -77.1412 -76.1334 -75.6966 -75.6966 -74.8427 -74.8427
    -9.4517  -7.1080  -4.4460  -4.3118  -3.9026  -3.2162  -3.0959  -2.1460
    -2.0554  -1.9334  -1.5095  -1.2446   1.1364   2.7971   2.8473   5.6702
     6.1098   7.6567

          k = 0.0000-0.5774 0.1526 (  4450 PWs)   bands (ev):

  -121.8580-120.9113 -77.1412 -76.1335 -75.6966 -75.6966 -74.8427 -74.8427
    -9.4506  -7.1079  -4.4461  -4.3119  -3.9053  -3.2170  -3.0975  -2.1472
    -2.0552  -1.9210  -1.5091  -1.2441   1.0576   2.7832   2.8606   5.7827
     6.4049   7.5823

          k = 0.0000-0.5774 0.2288 (  4444 PWs)   bands (ev):

  -121.8580-120.9113 -77.1412 -76.1335 -75.6966 -75.6966 -74.8427 -74.8427
    -9.4496  -7.1078  -4.4460  -4.3115  -3.9082  -3.2177  -3.0986  -2.1484
    -2.0550  -1.9086  -1.5089  -1.2437   0.9842   2.7614   2.8745   6.0520
     6.5345   7.5114

          k = 0.0000-0.5774-0.3051 (  4432 PWs)   bands (ev):

  -121.8580-120.9113 -77.1412 -76.1335 -75.6966 -75.6966 -74.8427 -74.8426
    -9.4491  -7.1077  -4.4462  -4.3114  -3.9092  -3.2183  -3.0989  -2.1484
    -2.0548  -1.9032  -1.5087  -1.2432   0.9550   2.7508   2.8802   6.3490
     6.3841   7.4825

          k = 0.1250 0.2165 0.0000 (  4447 PWs)   bands (ev):

  -121.8580-120.9113 -77.1412 -76.1335 -75.6966 -75.6966 -74.8427 -74.8426
    -9.6671  -7.1434  -4.4092  -4.3041  -4.1454  -3.1558  -3.1019  -2.1170
    -2.0862  -1.8775  -1.6297  -1.4126   2.1222   2.6704   3.3756   6.1963
     6.9979   7.5604

          k = 0.1250 0.2165 0.0763 (  4439 PWs)   bands (ev):

  -121.8580-120.9113 -77.1412 -76.1335 -75.6966 -75.6966 -74.8427 -74.8426
    -9.6660  -7.1445  -4.4097  -4.3038  -4.1459  -3.1559  -3.1021  -2.1173
    -2.0863  -1.8788  -1.6297  -1.4240   2.1484   2.7001   3.3823   6.1303
     7.0224   7.5401

          k = 0.1250 0.2165 0.1526 (  4437 PWs)   bands (ev):

  -121.8580-120.9113 -77.1412 -76.1335 -75.6966 -75.6966 -74.8427 -74.8426
    -9.6634  -7.1475  -4.4110  -4.3036  -4.1473  -3.1567  -3.1029  -2.1182
    -2.0863  -1.8823  -1.6296  -1.4506   2.2061   2.7782   3.3990   6.0113
     7.0110   7.4886

          k = 0.1250 0.2165 0.2288 (  4442 PWs)   bands (ev):

  -121.8580-120.9113 -77.1412 -76.1335 -75.6966 -75.6966 -74.8427 -74.8426
    -9.6608  -7.1504  -4.4123  -4.3035  -4.1487  -3.1574  -3.1040  -2.1198
    -2.0861  -1.8861  -1.6294  -1.4757   2.2564   2.8652   3.4177   5.9348
     6.9186   7.4353

          k = 0.1250 0.2165-0.3051 (  4444 PWs)   bands (ev):

  -121.8580-120.9113 -77.1412 -76.1335 -75.6966 -75.6966 -74.8427 -74.8426
    -9.6597  -7.1515  -4.4130  -4.3033  -4.1492  -3.1579  -3.1042  -2.1205
    -2.0862  -1.8878  -1.6295  -1.4857   2.2755   2.9035   3.4264   5.9151
     6.8585   7.4135

          k = 0.1250 0.3608 0.0000 (  4440 PWs)   bands (ev):

  -121.8580-120.9113 -77.1412 -76.1335 -75.6966 -75.6966 -74.8427 -74.8427
    -9.5435  -7.1224  -4.4255  -4.3168  -4.0126  -3.1910  -3.1023  -2.1266
    -2.0757  -1.9251  -1.5579  -1.2628   1.7486   2.5577   2.8296   5.7518
     6.8518   7.4478

          k = 0.1250 0.3608 0.0763 (  4442 PWs)   bands (ev):

  -121.8580-120.9113 -77.1412 -76.1335 -75.6966 -75.6966 -74.8427 -74.8427
    -9.5427  -7.1229  -4.4259  -4.3167  -4.0135  -3.1911  -3.1029  -2.1267
    -2.0757  -1.9232  -1.5579  -1.2683   1.7064   2.5850   2.8549   5.8727
     6.8213   7.3988

          k = 0.1250 0.3608 0.1526 (  4440 PWs)   bands (ev):

  -121.8580-120.9113 -77.1412 -76.1335 -75.6966 -75.6966 -74.8427 -74.8427
    -9.5410  -7.1241  -4.4266  -4.3165  -4.0154  -3.1916  -3.1042  -2.1280
    -2.0753  -1.9178  -1.5578  -1.2827   1.6283   2.6521   2.9039   6.0370
     6.8453   7.3148

          k = 0.1250 0.3608 0.2288 (  4449 PWs)   bands (ev):

  -121.8580-120.9113 -77.1412 -76.1335 -75.6966 -75.6966 -74.8427 -74.8427
    -9.5392  -7.1253  -4.4272  -4.3162  -4.0176  -3.1923  -3.1053  -2.1296
    -2.0750  -1.9119  -1.5580  -1.2980   1.5690   2.7034   2.9499   6.2595
     6.7540   7.2588

          k = 0.1250 0.3608-0.3051 (  4452 PWs)   bands (ev):

  -121.8580-120.9113 -77.1412 -76.1335 -75.6966 -75.6966 -74.8427 -74.8427
    -9.5385  -7.1257  -4.4275  -4.3163  -4.0183  -3.1928  -3.1060  -2.1308
    -2.0747  -1.9090  -1.5580  -1.3049   1.5502   2.7284   2.9654   6.2409
     6.7990   7.2458

          k = 0.1250 0.5052 0.0000 (  4444 PWs)   bands (ev):

  -121.8580-120.9113 -77.1412 -76.1334 -75.6966 -75.6966 -74.8427 -74.8427
    -9.4531  -7.1075  -4.4336  -4.3255  -3.9002  -3.2103  -3.1028  -2.1363
    -2.0690  -1.9439  -1.5089  -1.2091   1.2941   2.5027   2.8035   5.6782
     6.2820   7.4096

          k = 0.1250 0.5052 0.0763 (  4448 PWs)   bands (ev):

  -121.8580-120.9113 -77.1412 -76.1335 -75.6966 -75.6966 -74.8427 -74.8427
    -9.4527  -7.1075  -4.4337  -4.3256  -3.9013  -3.2105  -3.1036  -2.1362
    -2.0685  -1.9402  -1.5089  -1.2088   1.2584   2.5015   2.8040   5.8352
     6.3006   7.3522

          k = 0.1250 0.5052 0.1526 (  4456 PWs)   bands (ev):

  -121.8580-120.9113 -77.1412 -76.1335 -75.6966 -75.6966 -74.8427 -74.8427
    -9.4516  -7.1074  -4.4339  -4.3254  -3.9040  -3.2111  -3.1052  -2.1370
    -2.0676  -1.9302  -1.5091  -1.2100   1.1822   2.5056   2.8031   6.0515
     6.5048   7.2478

          k = 0.1250 0.5052 0.2288 (  4451 PWs)   bands (ev):

  -121.8580-120.9113 -77.1412 -76.1335 -75.6966 -75.6966 -74.8427 -74.8427
    -9.4505  -7.1073  -4.4339  -4.3250  -3.9068  -3.2117  -3.1064  -2.1378
    -2.0666  -1.9196  -1.5092  -1.2119   1.1135   2.5137   2.7951   6.3158
     6.6382   7.2018

          k = 0.1250 0.5052-0.3051 (  4468 PWs)   bands (ev):

  -121.8580-120.9113 -77.1412 -76.1335 -75.6966 -75.6966 -74.8427 -74.8427
    -9.4501  -7.1073  -4.4340  -4.3252  -3.9081  -3.2122  -3.1071  -2.1388
    -2.0665  -1.9150  -1.5096  -1.2137   1.0885   2.5188   2.7912   6.3558
     6.6954   7.2454

          k = 0.2500 0.4330 0.0000 (  4449 PWs)   bands (ev):

  -121.8580-120.9113 -77.1412 -76.1335 -75.6966 -75.6966 -74.8427 -74.8427
    -9.4542  -7.1071  -4.4170  -4.3434  -3.8993  -3.2038  -3.1111  -2.1225
    -2.0864  -1.9488  -1.5084  -1.1739   1.5240   2.0842   2.8030   5.7574
     6.5761   7.1168

          k = 0.2500 0.4330 0.0763 (  4456 PWs)   bands (ev):

  -121.8580-120.9113 -77.1412 -76.1335 -75.6966 -75.6966 -74.8427 -74.8427
    -9.4537  -7.1070  -4.4171  -4.3433  -3.9003  -3.2040  -3.1118  -2.1228
    -2.0858  -1.9455  -1.5087  -1.1754   1.4900   2.0844   2.8126   5.8288
     6.6586   7.0680

          k = 0.2500 0.4330 0.1526 (  4447 PWs)   bands (ev):

  -121.8580-120.9113 -77.1412 -76.1335 -75.6966 -75.6966 -74.8427 -74.8427
    -9.4526  -7.1069  -4.4172  -4.3429  -3.9027  -3.2043  -3.1133  -2.1230
    -2.0840  -1.9373  -1.5089  -1.1791   1.4122   2.0903   2.8249   6.0458
     6.7841   7.0198

          k = 0.2500 0.4330 0.2288 (  4454 PWs)   bands (ev):

  -121.8580-120.9113 -77.1412 -76.1335 -75.6966 -75.6966 -74.8427 -74.8427
    -9.4515  -7.1068  -4.4175  -4.3427  -3.9054  -3.2047  -3.1150  -2.1233
    -2.0824  -1.9289  -1.5092  -1.1831   1.3395   2.1004   2.8257   6.3564
     6.7455   7.0974

          k = 0.2500 0.4330-0.3051 (  4448 PWs)   bands (ev):

  -121.8580-120.9113 -77.1412 -76.1335 -75.6966 -75.6966 -74.8427 -74.8427
    -9.4511  -7.1068  -4.4173  -4.3425  -3.9065  -3.2045  -3.1154  -2.1235
    -2.0817  -1.9253  -1.5093  -1.1848   1.3110   2.1056   2.8235   6.5331
     6.7331   7.0895

          k = 0.2500 0.5774 0.0000 (  4467 PWs)   bands (ev):

  -121.8580-120.9113 -77.1412 -76.1334 -75.6966 -75.6966 -74.8427 -74.8427
    -9.4168  -7.1005  -4.4064  -4.3604  -3.8464  -3.2068  -3.1158  -2.1225
    -2.0934  -1.9540  -1.4986  -1.1302   1.4100   1.8500   2.8773   5.8707
     6.3259   6.9807

          k = 0.2500 0.5774 0.0763 (  4457 PWs)   bands (ev):

  -121.8580-120.9113 -77.1412 -76.1334 -75.6966 -75.6966 -74.8427 -74.8427
    -9.4164  -7.1002  -4.4064  -4.3603  -3.8473  -3.2069  -3.1165  -2.1217
    -2.0923  -1.9505  -1.4985  -1.1300   1.3852   1.8447   2.8618   5.9650
     6.4232   6.9174

          k = 0.2500 0.5774 0.1526 (  4448 PWs)   bands (ev):

  -121.8580-120.9113 -77.1412 -76.1335 -75.6966 -75.6966 -74.8427 -74.8427
    -9.4156  -7.0996  -4.4062  -4.3598  -3.8501  -3.2070  -3.1181  -2.1198
    -2.0903  -1.9423  -1.4984  -1.1296   1.3217   1.8400   2.8238   6.2112
     6.6181   6.8387

          k = 0.2500 0.5774 0.2288 (  4470 PWs)   bands (ev):

  -121.8580-120.9113 -77.1412 -76.1335 -75.6966 -75.6966 -74.8427 -74.8427
    -9.4148  -7.0990  -4.4063  -4.3598  -3.8531  -3.2076  -3.1202  -2.1188
    -2.0887  -1.9336  -1.4988  -1.1297   1.2552   1.8431   2.7862   6.4434
     6.6505   7.0310

          k = 0.2500 0.5774-0.3051 (  4476 PWs)   bands (ev):

  -121.8580-120.9113 -77.1412 -76.1335 -75.6966 -75.6966 -74.8427 -74.8427
    -9.4145  -7.0988  -4.4064  -4.3597  -3.8547  -3.2078  -3.1209  -2.1181
    -2.0879  -1.9302  -1.4988  -1.1296   1.2275   1.8461   2.7707   6.4583
     6.7444   7.1514

          k = 0.0000-0.1443 0.0763 (  4437 PWs)   bands (ev):

  -121.8580-120.9113 -77.1412 -76.1335 -75.6966 -75.6966 -74.8426 -74.8426
    -9.7505  -7.1597  -4.3883  -4.2959  -4.2329  -3.1252  -3.1022  -2.1089
    -2.0951  -1.8297  -1.6770  -1.5702   2.0372   3.3785   3.8400   6.2261
     7.1470   7.5281

          k = 0.0000-0.1443 0.1526 (  4433 PWs)   bands (ev):

  -121.8580-120.9113 -77.1412 -76.1335 -75.6966 -75.6966 -74.8426 -74.8426
    -9.7474  -7.1638  -4.3901  -4.2958  -4.2338  -3.1257  -3.1030  -2.1096
    -2.0947  -1.8463  -1.6767  -1.5957   2.2444   3.3763   3.8492   5.8528
     7.2024   7.5014

          k = 0.0000-0.1443 0.2288 (  4423 PWs)   bands (ev):

  -121.8580-120.9113 -77.1412 -76.1335 -75.6966 -75.6966 -74.8426 -74.8426
    -9.7442  -7.1679  -4.3919  -4.2958  -4.2346  -3.1263  -3.1038  -2.1101
    -2.0943  -1.8648  -1.6763  -1.6165   2.4832   3.3540   3.8593   5.5547
     7.1638   7.4709

          k = 0.0000-0.2887 0.0763 (  4442 PWs)   bands (ev):

  -121.8580-120.9113 -77.1412 -76.1335 -75.6966 -75.6966 -74.8427 -74.8426
    -9.6302  -7.1383  -4.4189  -4.3028  -4.1107  -3.1696  -3.0999  -2.1248
    -2.0788  -1.8917  -1.6120  -1.3735   2.0419   2.5555   3.3869   5.7326
     7.1678   7.6396

          k = 0.0000-0.2887 0.1526 (  4447 PWs)   bands (ev):

  -121.8580-120.9113 -77.1412 -76.1335 -75.6966 -75.6966 -74.8427 -74.8426
    -9.6279  -7.1408  -4.4200  -4.3025  -4.1124  -3.1706  -3.1006  -2.1266
    -2.0786  -1.8919  -1.6118  -1.3980   2.0050   2.7144   3.3983   5.6477
     7.1950   7.5923

          k = 0.0000-0.2887 0.2288 (  4447 PWs)   bands (ev):

  -121.8580-120.9113 -77.1412 -76.1335 -75.6966 -75.6966 -74.8427 -74.8426
    -9.6255  -7.1432  -4.4212  -4.3022  -4.1140  -3.1713  -3.1015  -2.1279
    -2.0785  -1.8922  -1.6115  -1.4210   1.9851   2.8393   3.4106   5.7132
     7.0198   7.5412

          k = 0.0000-0.4330 0.0763 (  4451 PWs)   bands (ev):

  -121.8580-120.9113 -77.1412 -76.1335 -75.6966 -75.6966 -74.8427 -74.8427
    -9.5051  -7.1169  -4.4388  -4.3094  -3.9712  -3.2049  -3.0973  -2.1400
    -2.0626  -1.9263  -1.5412  -1.2543   1.3854   2.7169   2.9966   5.4109
     6.7117   7.6639

          k = 0.0000-0.4330 0.1526 (  4447 PWs)   bands (ev):

  -121.8580-120.9113 -77.1412 -76.1335 -75.6966 -75.6966 -74.8427 -74.8427
    -9.5036  -7.1175  -4.4391  -4.3090  -3.9736  -3.2056  -3.0983  -2.1419
    -2.0624  -1.9172  -1.5410  -1.2632   1.3111   2.7795   3.0095   5.4732
     6.9069   7.5979

          k = 0.0000-0.4330 0.2288 (  4448 PWs)   bands (ev):

  -121.8580-120.9113 -77.1412 -76.1335 -75.6966 -75.6966 -74.8427 -74.8427
    -9.5021  -7.1182  -4.4396  -4.3089  -3.9759  -3.2062  -3.0996  -2.1430
    -2.0621  -1.9085  -1.5406  -1.2711   1.2427   2.8092   3.0229   5.7277
     6.9104   7.5311

          k =-0.1250-0.3608 0.0763 (  4442 PWs)   bands (ev):

  -121.8580-120.9113 -77.1412 -76.1335 -75.6966 -75.6966 -74.8427 -74.8427
    -9.5427  -7.1229  -4.4257  -4.3168  -4.0135  -3.1914  -3.1029  -2.1277
    -2.0756  -1.9225  -1.5579  -1.2697   1.7121   2.6154   2.8380   5.6816
     6.9880   7.4287

          k =-0.1250-0.3608 0.1526 (  4440 PWs)   bands (ev):

  -121.8580-120.9113 -77.1412 -76.1335 -75.6966 -75.6966 -74.8427 -74.8427
    -9.5410  -7.1241  -4.4263  -4.3166  -4.0155  -3.1920  -3.1041  -2.1293
    -2.0750  -1.9167  -1.5578  -1.2848   1.6366   2.6918   2.8839   5.7348
     7.1025   7.3654

          k =-0.1250-0.3608 0.2288 (  4449 PWs)   bands (ev):

  -121.8580-120.9113 -77.1412 -76.1335 -75.6966 -75.6966 -74.8427 -74.8427
    -9.5392  -7.1253  -4.4271  -4.3163  -4.0176  -3.1925  -3.1053  -2.1306
    -2.0749  -1.9112  -1.5580  -1.2994   1.5749   2.7271   2.9405   5.9477
     7.0371   7.2908

          k =-0.1250-0.5052 0.0763 (  4448 PWs)   bands (ev):

  -121.8580-120.9113 -77.1412 -76.1335 -75.6966 -75.6966 -74.8427 -74.8427
    -9.4527  -7.1075  -4.4336  -4.3257  -3.9014  -3.2107  -3.1036  -2.1370
    -2.0684  -1.9393  -1.5089  -1.2104   1.2641   2.5050   2.8105   5.6375
     6.4691   7.3804

          k =-0.1250-0.5052 0.1526 (  4456 PWs)   bands (ev):

  -121.8580-120.9113 -77.1412 -76.1335 -75.6966 -75.6966 -74.8427 -74.8427
    -9.4516  -7.1074  -4.4337  -4.3255  -3.9041  -3.2114  -3.1051  -2.1381
    -2.0674  -1.9291  -1.5091  -1.2125   1.1902   2.5101   2.8108   5.7772
     6.7116   7.3114

          k =-0.1250-0.5052 0.2288 (  4451 PWs)   bands (ev):

  -121.8580-120.9113 -77.1412 -76.1335 -75.6966 -75.6966 -74.8427 -74.8427
    -9.4505  -7.1073  -4.4338  -4.3251  -3.9068  -3.2118  -3.1063  -2.1385
    -2.0665  -1.9187  -1.5092  -1.2136   1.1191   2.5169   2.7995   6.0628
     6.8013   7.2820

     highest occupied level (ev):     7.6895

!    total energy              =    -839.89078779 Ry
     estimated scf accuracy    <          5.4E-09 Ry

     The total energy is the sum of the following terms:
     one-electron contribution =    -844.90279053 Ry
     hartree contribution      =     423.88812672 Ry
     xc contribution           =     -82.69122077 Ry
     ewald contribution        =    -336.18490321 Ry

     convergence has been achieved in  11 iterations

     Writing all to output data dir ./SCRATCH/zns_w.save/

     init_run     :      4.39s CPU      4.54s WALL (       1 calls)
     electrons    :    198.81s CPU    199.93s WALL (       1 calls)

     Called by init_run:
     wfcinit      :      4.25s CPU      4.38s WALL (       1 calls)
     potinit      :      0.08s CPU      0.08s WALL (       1 calls)
     hinit0       :      0.02s CPU      0.04s WALL (       1 calls)

     Called by electrons:
     c_bands      :    183.39s CPU    184.44s WALL (      11 calls)
     sum_band     :     15.05s CPU     15.09s WALL (      11 calls)
     v_of_rho     :      0.39s CPU      0.38s WALL (      12 calls)
     mix_rho      :      0.03s CPU      0.05s WALL (      11 calls)

     Called by c_bands:
     init_us_2    :      1.70s CPU      1.56s WALL (    1495 calls)
     init_us_2:cp :      1.67s CPU      1.56s WALL (    1495 calls)
     cegterg      :    179.62s CPU    180.66s WALL (     715 calls)

     Called by *egterg:
     cdiaghg      :      2.75s CPU      2.79s WALL (    4802 calls)
     h_psi        :    130.17s CPU    130.86s WALL (    4867 calls)
     g_psi        :      0.47s CPU      0.57s WALL (    4087 calls)

     Called by h_psi:
     h_psi:calbec :     16.12s CPU     16.25s WALL (    4867 calls)
     vloc_psi     :    102.84s CPU    102.70s WALL (    4867 calls)
     add_vuspsi   :     11.08s CPU     11.42s WALL (    4867 calls)

     General routines
     calbec       :     16.11s CPU     16.23s WALL (    4867 calls)
     fft          :      0.14s CPU      0.14s WALL (     119 calls)
     ffts         :      0.00s CPU      0.01s WALL (      11 calls)
     fftw         :    106.62s CPU    106.09s WALL (  151710 calls)


     PWSCF        :   3m23.25s CPU   3m24.57s WALL


   This run was terminated on:  12:56: 1   9Jun2024            

=------------------------------------------------------------------------------=
   JOB DONE.
=------------------------------------------------------------------------------=
