
     Program PWSCF v.7.2 starts on  9Jun2024 at 12:37:34 

     This program is part of the open-source Quantum ESPRESSO suite
     for quantum simulation of materials; please cite
         "P. Giannozzi et al., J. Phys.:Condens. Matter 21 395502 (2009);
         "P. Giannozzi et al., J. Phys.:Condens. Matter 29 465901 (2017);
         "P. Giannozzi et al., J. Chem. Phys. 152 154105 (2020);
          URL http://www.quantum-espresso.org", 
     in publications or presentations arising from this work. More details at
     http://www.quantum-espresso.org/quote

     Serial version
     8742 MiB available memory on the printing compute node when the environment starts

     Waiting for input...
     Reading input from standard input

     Current dimensions of program PWSCF are:
     Max number of different atomic species (ntypx) = 10
     Max number of k-points (npk) =  40000
     Max angular momentum in pseudopotentials (lmaxx) =  4


     G-vector sticks info
     --------------------
     sticks:   dense  smooth     PW     G-vecs:    dense   smooth      PW
     Sum         721     721    211                25517    25517    4079

     Using Slab Decomposition



     bravais-lattice index     =            4
     lattice parameter (alat)  =       7.2188  a.u.
     unit-cell volume          =     533.8610 (a.u.)^3
     number of atoms/cell      =            4
     number of atomic types    =            2
     number of electrons       =        52.00
     number of Kohn-Sham states=           26
     kinetic-energy cutoff     =      50.0000  Ry
     charge density cutoff     =     200.0000  Ry
     scf convergence threshold =      1.0E-08
     mixing beta               =       0.7000
     number of iterations used =            8  plain     mixing
     Exchange-correlation= PBE
                           (   1   4   3   4   0   0   0)

     celldm(1)=   7.218753  celldm(2)=   0.000000  celldm(3)=   1.638743
     celldm(4)=   0.000000  celldm(5)=   0.000000  celldm(6)=   0.000000

     crystal axes: (cart. coord. in units of alat)
               a(1) = (   1.000000   0.000000   0.000000 )  
               a(2) = (  -0.500000   0.866025   0.000000 )  
               a(3) = (   0.000000   0.000000   1.638743 )  

     reciprocal axes: (cart. coord. in units 2 pi/alat)
               b(1) = (  1.000000  0.577350 -0.000000 )  
               b(2) = (  0.000000  1.154701  0.000000 )  
               b(3) = (  0.000000 -0.000000  0.610224 )  


     PseudoPot. # 1 for Zn read from file:
     /home/paolo/project_labqsm/pseudopotentials/Zn_ONCV_PBE-1.2.upf
     MD5 check sum: 732f41c0cd6489a4b50a33b4ec99a2d3
     Pseudo is Norm-conserving, Zval = 20.0
     Generated using ONCVPSP code by D. R. Hamann
     Using radial grid of  602 points,  6 beta functions with: 
                l(1) =   0
                l(2) =   0
                l(3) =   1
                l(4) =   1
                l(5) =   2
                l(6) =   2

     PseudoPot. # 2 for S  read from file:
     /home/paolo/project_labqsm/pseudopotentials/S_ONCV_PBE-1.2.upf
     MD5 check sum: f9d020296ee6110346977bfd66d424f6
     Pseudo is Norm-conserving, Zval =  6.0
     Generated using ONCVPSP code by D. R. Hamann
     Using radial grid of  602 points,  4 beta functions with: 
                l(1) =   0
                l(2) =   0
                l(3) =   1
                l(4) =   1

     atomic species   valence    mass     pseudopotential
        Zn            20.00    65.38000     Zn( 1.00)
        S              6.00    32.06000     S ( 1.00)

      6 Sym. Ops. (no inversion) found



   Cartesian axes

     site n.     atom                  positions (alat units)
         1           Zn  tau(   1) = (   0.0000000   0.0000000   0.0000000  )
         2           S   tau(   2) = (   0.0000000   0.0000000   0.3723729  )
         3           Zn  tau(   3) = (   0.0000000   0.5773503   0.5000000  )
         4           S   tau(   4) = (   0.0000000   0.5773503   0.8723729  )

     number of k points=    34
                       cart. coord. in units 2pi/alat
        k(    1) = (   0.0000000   0.0000000   0.0000000), wk =   0.0092593
        k(    2) = (   0.0000000   0.0000000   0.1017039), wk =   0.0185185
        k(    3) = (   0.0000000   0.0000000   0.2034079), wk =   0.0185185
        k(    4) = (   0.0000000   0.0000000  -0.3051118), wk =   0.0092593
        k(    5) = (   0.0000000   0.1924501   0.0000000), wk =   0.0555556
        k(    6) = (   0.0000000   0.1924501   0.1017039), wk =   0.0555556
        k(    7) = (   0.0000000   0.1924501   0.2034079), wk =   0.0555556
        k(    8) = (   0.0000000   0.1924501  -0.3051118), wk =   0.0555556
        k(    9) = (   0.0000000   0.3849002   0.0000000), wk =   0.0555556
        k(   10) = (   0.0000000   0.3849002   0.1017039), wk =   0.0555556
        k(   11) = (   0.0000000   0.3849002   0.2034079), wk =   0.0555556
        k(   12) = (   0.0000000   0.3849002  -0.3051118), wk =   0.0555556
        k(   13) = (   0.0000000  -0.5773503   0.0000000), wk =   0.0277778
        k(   14) = (   0.0000000  -0.5773503   0.1017039), wk =   0.0555556
        k(   15) = (   0.0000000  -0.5773503   0.2034079), wk =   0.0555556
        k(   16) = (   0.0000000  -0.5773503  -0.3051118), wk =   0.0277778
        k(   17) = (   0.1666667   0.2886751   0.0000000), wk =   0.0555556
        k(   18) = (   0.1666667   0.2886751   0.1017039), wk =   0.1111111
        k(   19) = (   0.1666667   0.2886751   0.2034079), wk =   0.1111111
        k(   20) = (   0.1666667   0.2886751  -0.3051118), wk =   0.0555556
        k(   21) = (   0.1666667   0.4811252   0.0000000), wk =   0.1111111
        k(   22) = (   0.1666667   0.4811252   0.1017039), wk =   0.1111111
        k(   23) = (   0.1666667   0.4811252   0.2034079), wk =   0.1111111
        k(   24) = (   0.1666667   0.4811252  -0.3051118), wk =   0.1111111
        k(   25) = (   0.3333333   0.5773503   0.0000000), wk =   0.0185185
        k(   26) = (   0.3333333   0.5773503   0.1017039), wk =   0.0370370
        k(   27) = (   0.3333333   0.5773503   0.2034079), wk =   0.0370370
        k(   28) = (   0.3333333   0.5773503  -0.3051118), wk =   0.0185185
        k(   29) = (   0.0000000  -0.1924501   0.1017039), wk =   0.0555556
        k(   30) = (   0.0000000  -0.1924501   0.2034079), wk =   0.0555556
        k(   31) = (   0.0000000  -0.3849002   0.1017039), wk =   0.0555556
        k(   32) = (   0.0000000  -0.3849002   0.2034079), wk =   0.0555556
        k(   33) = (  -0.1666667  -0.4811252   0.1017039), wk =   0.1111111
        k(   34) = (  -0.1666667  -0.4811252   0.2034079), wk =   0.1111111

     Dense  grid:    25517 G-vectors     FFT dimensions: (  36,  36,  54)

     Estimated max dynamical RAM per process >      70.45 MB

     Initial potential from superposition of free atoms

     starting charge      51.9339, renormalised to      52.0000
     Starting wfcs are random

     total cpu time spent up to now is        1.6 secs

     Self-consistent Calculation

     iteration #  1     ecut=    50.00 Ry     beta= 0.70
     Davidson diagonalization with overlap
     ethr =  1.00E-02,  avg # of iterations = 14.8

     total cpu time spent up to now is       21.7 secs

     total energy              =    -838.68909732 Ry
     estimated scf accuracy    <       1.36169616 Ry

     iteration #  2     ecut=    50.00 Ry     beta= 0.70
     Davidson diagonalization with overlap
     ethr =  2.62E-03,  avg # of iterations =  8.1

     total cpu time spent up to now is       27.8 secs

     total energy              =    -838.14573676 Ry
     estimated scf accuracy    <       7.08466460 Ry

     iteration #  3     ecut=    50.00 Ry     beta= 0.70
     Davidson diagonalization with overlap
     ethr =  2.62E-03,  avg # of iterations =  6.1

     total cpu time spent up to now is       33.1 secs

     total energy              =    -839.40876696 Ry
     estimated scf accuracy    <       0.38992366 Ry

     iteration #  4     ecut=    50.00 Ry     beta= 0.70
     Davidson diagonalization with overlap
     ethr =  7.50E-04,  avg # of iterations =  2.0

     total cpu time spent up to now is       37.2 secs

     total energy              =    -839.42820177 Ry
     estimated scf accuracy    <       0.08122669 Ry

     iteration #  5     ecut=    50.00 Ry     beta= 0.70
     Davidson diagonalization with overlap
     ethr =  1.56E-04,  avg # of iterations =  4.1

     total cpu time spent up to now is       41.4 secs

     total energy              =    -839.43559517 Ry
     estimated scf accuracy    <       0.00788608 Ry

     iteration #  6     ecut=    50.00 Ry     beta= 0.70
     Davidson diagonalization with overlap
     ethr =  1.52E-05,  avg # of iterations =  4.5

     total cpu time spent up to now is       46.0 secs

     total energy              =    -839.43716829 Ry
     estimated scf accuracy    <       0.00102493 Ry

     iteration #  7     ecut=    50.00 Ry     beta= 0.70
     Davidson diagonalization with overlap
     ethr =  1.97E-06,  avg # of iterations =  4.4

     total cpu time spent up to now is       50.8 secs

     total energy              =    -839.43743282 Ry
     estimated scf accuracy    <       0.00030957 Ry

     iteration #  8     ecut=    50.00 Ry     beta= 0.70
     Davidson diagonalization with overlap
     ethr =  5.95E-07,  avg # of iterations =  2.9

     total cpu time spent up to now is       54.9 secs

     total energy              =    -839.43745203 Ry
     estimated scf accuracy    <       0.00004030 Ry

     iteration #  9     ecut=    50.00 Ry     beta= 0.70
     Davidson diagonalization with overlap
     ethr =  7.75E-08,  avg # of iterations =  5.1

     total cpu time spent up to now is       59.6 secs

     total energy              =    -839.43746317 Ry
     estimated scf accuracy    <       0.00000424 Ry

     iteration # 10     ecut=    50.00 Ry     beta= 0.70
     Davidson diagonalization with overlap
     ethr =  8.16E-09,  avg # of iterations =  3.9

     total cpu time spent up to now is       63.7 secs

     total energy              =    -839.43746361 Ry
     estimated scf accuracy    <       0.00000024 Ry

     iteration # 11     ecut=    50.00 Ry     beta= 0.70
     Davidson diagonalization with overlap
     ethr =  4.58E-10,  avg # of iterations =  5.2

     total cpu time spent up to now is       69.1 secs

     total energy              =    -839.43746369 Ry
     estimated scf accuracy    <       0.00000008 Ry

     iteration # 12     ecut=    50.00 Ry     beta= 0.70
     Davidson diagonalization with overlap
     ethr =  1.53E-10,  avg # of iterations =  2.9

     total cpu time spent up to now is       73.2 secs

     End of self-consistent calculation

          k = 0.0000 0.0000 0.0000 (  3189 PWs)   bands (ev):

  -122.0875-121.2590 -77.2724 -76.3786 -75.6733 -75.6733 -74.9514 -74.9514
    -9.4400  -6.8689  -4.1616  -4.1029  -4.1029  -2.9988  -2.9988  -1.6971
    -1.6971  -1.4707  -1.4707  -1.3383   2.4510   4.7397   4.7397   7.2809
     8.2310   8.2310

          k = 0.0000 0.0000 0.1017 (  3171 PWs)   bands (ev):

  -122.0875-121.2590 -77.2720 -76.3782 -75.6726 -75.6726 -74.9507 -74.9507
    -9.4374  -6.8716  -4.1718  -4.0921  -4.0921  -2.9934  -2.9934  -1.6903
    -1.6903  -1.4625  -1.4625  -1.3778   2.6376   4.7493   4.7493   6.8248
     8.2209   8.2209

          k = 0.0000 0.0000 0.2034 (  3200 PWs)   bands (ev):

  -122.0875-121.2590 -77.2732 -76.3793 -75.6738 -75.6738 -74.9519 -74.9519
    -9.4316  -6.8777  -4.1769  -4.1074  -4.1074  -3.0109  -3.0109  -1.7009
    -1.7009  -1.4728  -1.4728  -1.4541   3.0754   4.7537   4.7537   6.0842
     8.1827   8.1827

          k = 0.0000 0.0000-0.3051 (  3146 PWs)   bands (ev):

  -122.0874-121.2589 -77.2707 -76.3769 -75.6722 -75.6722 -74.9504 -74.9504
    -9.4254  -6.8742  -4.1572  -4.0906  -4.0906  -2.9938  -2.9938  -1.6857
    -1.6857  -1.4797  -1.4574  -1.4574   3.3581   4.7695   4.7695   5.7033
     8.1741   8.1741

          k = 0.0000 0.1925 0.0000 (  3180 PWs)   bands (ev):

  -122.0875-121.2590 -77.2725 -76.3787 -75.6736 -75.6729 -74.9518 -74.9511
    -9.3476  -6.8498  -4.2180  -4.1103  -3.9831  -3.0485  -2.9972  -1.7046
    -1.6823  -1.5553  -1.4234  -1.1185   2.6465   3.6328   4.3386   7.1201
     7.9084   8.3926

          k = 0.0000 0.1925 0.1017 (  3183 PWs)   bands (ev):

  -122.0875-121.2590 -77.2726 -76.3788 -75.6733 -75.6733 -74.9515 -74.9514
    -9.3454  -6.8513  -4.2195  -4.1153  -3.9858  -3.0409  -3.0044  -1.7059
    -1.6814  -1.5591  -1.4204  -1.1485   2.7711   3.6414   4.3454   7.1328
     7.6520   8.3543

          k = 0.0000 0.1925 0.2034 (  3169 PWs)   bands (ev):

  -122.0875-121.2590 -77.2719 -76.3781 -75.6730 -75.6729 -74.9512 -74.9511
    -9.3397  -6.8551  -4.2184  -4.1044  -3.9831  -3.0382  -2.9989  -1.7101
    -1.6738  -1.5632  -1.4137  -1.2031   3.0333   3.6870   4.3654   6.7146
     7.6397   8.3024

          k = 0.0000 0.1925-0.3051 (  3164 PWs)   bands (ev):

  -122.0875-121.2590 -77.2714 -76.3776 -75.6733 -75.6727 -74.9515 -74.9508
    -9.3365  -6.8560  -4.2202  -4.0998  -3.9820  -3.0408  -2.9953  -1.7142
    -1.6728  -1.5600  -1.4131  -1.2291   3.1606   3.7456   4.3720   6.4051
     7.7163   8.2833

          k = 0.0000 0.3849 0.0000 (  3192 PWs)   bands (ev):

  -122.0875-121.2590 -77.2723 -76.3785 -75.6750 -75.6735 -74.9531 -74.9516
    -9.1584  -6.8212  -4.2580  -4.1195  -3.7741  -3.1035  -2.9887  -1.7407
    -1.6762  -1.6111  -1.3340  -0.9048   2.1349   3.2594   3.6860   6.2650
     7.5513   8.5083

          k = 0.0000 0.3849 0.1017 (  3190 PWs)   bands (ev):

  -122.0875-121.2590 -77.2723 -76.3785 -75.6747 -75.6734 -74.9529 -74.9516
    -9.1566  -6.8213  -4.2584  -4.1197  -3.7723  -3.1030  -2.9929  -1.7410
    -1.6699  -1.6087  -1.3271  -0.9150   2.0613   3.3321   3.6966   6.5519
     7.4365   8.4495

          k = 0.0000 0.3849 0.2034 (  3193 PWs)   bands (ev):

  -122.0875-121.2590 -77.2720 -76.3782 -75.6752 -75.6737 -74.9533 -74.9518
    -9.1531  -6.8214  -4.2595  -4.1189  -3.7738  -3.1036  -2.9985  -1.7453
    -1.6750  -1.5975  -1.3319  -0.9401   1.9591   3.4746   3.7153   6.8868
     7.3509   8.3506

          k = 0.0000 0.3849-0.3051 (  3206 PWs)   bands (ev):

  -122.0875-121.2590 -77.2729 -76.3791 -75.6757 -75.6737 -74.9539 -74.9518
    -9.1531  -6.8254  -4.2662  -4.1175  -3.7813  -3.1112  -2.9985  -1.7489
    -1.6823  -1.5937  -1.3372  -0.9591   1.9239   3.5497   3.7246   6.7621
     7.4945   8.3070

          k = 0.0000-0.5774 0.0000 (  3174 PWs)   bands (ev):

  -122.0875-121.2590 -77.2717 -76.3779 -75.6737 -75.6733 -74.9518 -74.9515
    -9.0583  -6.8048  -4.2631  -4.1210  -3.6354  -3.1138  -2.9817  -1.7404
    -1.6635  -1.5837  -1.2701  -0.9292   1.7034   3.4056   3.4983   6.3566
     6.6555   8.5133

          k = 0.0000-0.5774 0.1017 (  3182 PWs)   bands (ev):

  -122.0875-121.2590 -77.2720 -76.3781 -75.6740 -75.6736 -74.9523 -74.9517
    -9.0575  -6.8037  -4.2659  -4.1248  -3.6364  -3.1223  -2.9861  -1.7388
    -1.6710  -1.5736  -1.2766  -0.9310   1.6353   3.4144   3.4885   6.3627
     6.9630   8.4475

          k = 0.0000-0.5774 0.2034 (  3184 PWs)   bands (ev):

  -122.0875-121.2590 -77.2718 -76.3780 -75.6745 -75.6736 -74.9527 -74.9517
    -9.0546  -6.8014  -4.2737  -4.1202  -3.6362  -3.1304  -2.9895  -1.7434
    -1.6731  -1.5517  -1.2787  -0.9302   1.5123   3.4366   3.4531   6.6606
     7.3101   8.3307

          k = 0.0000-0.5774-0.3051 (  3220 PWs)   bands (ev):

  -122.0875-121.2590 -77.2735 -76.3797 -75.6755 -75.6747 -74.9537 -74.9528
    -9.0565  -6.8066  -4.2847  -4.1321  -3.6463  -3.1439  -3.0060  -1.7515
    -1.6863  -1.5529  -1.2932  -0.9359   1.4523   3.4255   3.4407   7.0875
     7.1650   8.2679

          k = 0.1667 0.2887 0.0000 (  3190 PWs)   bands (ev):

  -122.0875-121.2590 -77.2723 -76.3784 -75.6745 -75.6736 -74.9527 -74.9517
    -9.2069  -6.8282  -4.2410  -4.1267  -3.8271  -3.0814  -3.0024  -1.7285
    -1.6882  -1.6103  -1.3460  -0.9328   2.5576   3.1502   3.5112   6.6309
     7.8704   8.2383

          k = 0.1667 0.2887 0.1017 (  3192 PWs)   bands (ev):

  -122.0875-121.2590 -77.2721 -76.3783 -75.6747 -75.6738 -74.9528 -74.9519
    -9.2050  -6.8281  -4.2410  -4.1306  -3.8271  -3.0834  -3.0029  -1.7273
    -1.6929  -1.6046  -1.3520  -0.9479   2.4862   3.2668   3.5447   6.6303
     7.9173   8.1857

          k = 0.1667 0.2887 0.2034 (  3181 PWs)   bands (ev):

  -122.0875-121.2590 -77.2720 -76.3782 -75.6745 -75.6730 -74.9526 -74.9512
    -9.2010  -6.8297  -4.2434  -4.1243  -3.8280  -3.0854  -2.9987  -1.7249
    -1.6838  -1.5956  -1.3453  -0.9821   2.3986   3.3991   3.6526   6.7637
     7.7960   8.0915

          k = 0.1667 0.2887-0.3051 (  3184 PWs)   bands (ev):

  -122.0875-121.2590 -77.2722 -76.3784 -75.6747 -75.6731 -74.9528 -74.9512
    -9.1994  -6.8313  -4.2498  -4.1205  -3.8308  -3.0915  -2.9985  -1.7262
    -1.6859  -1.5934  -1.3461  -1.0004   2.3679   3.4331   3.7172   6.9843
     7.5378   8.0320

          k = 0.1667 0.4811 0.0000 (  3199 PWs)   bands (ev):

  -122.0875-121.2590 -77.2722 -76.3783 -75.6749 -75.6743 -74.9531 -74.9524
    -9.0607  -6.8043  -4.2449  -4.1539  -3.6368  -3.1144  -3.0052  -1.7448
    -1.6998  -1.5994  -1.2696  -0.8672   1.9152   2.8376   3.4991   6.3813
     7.2036   8.0343

          k = 0.1667 0.4811 0.1017 (  3192 PWs)   bands (ev):

  -122.0875-121.2590 -77.2719 -76.3781 -75.6747 -75.6742 -74.9529 -74.9523
    -9.0592  -6.8030  -4.2465  -4.1487  -3.6355  -3.1149  -3.0052  -1.7420
    -1.6947  -1.5952  -1.2689  -0.8654   1.8512   2.8371   3.5042   6.6100
     7.2972   7.9237

          k = 0.1667 0.4811 0.2034 (  3190 PWs)   bands (ev):

  -122.0875-121.2590 -77.2722 -76.3784 -75.6749 -75.6735 -74.9531 -74.9517
    -9.0574  -6.8027  -4.2533  -4.1463  -3.6399  -3.1208  -3.0044  -1.7369
    -1.6857  -1.5868  -1.2664  -0.8669   1.7382   2.8438   3.5021   7.0052
     7.5187   7.8235

          k = 0.1667 0.4811-0.3051 (  3190 PWs)   bands (ev):

  -122.0875-121.2590 -77.2723 -76.3785 -75.6751 -75.6735 -74.9532 -74.9516
    -9.0571  -6.8039  -4.2521  -4.1447  -3.6432  -3.1213  -3.0039  -1.7380
    -1.6834  -1.5831  -1.2668  -0.8719   1.6906   2.8494   3.4973   7.1443
     7.5775   7.9162

          k = 0.3333 0.5774 0.0000 (  3180 PWs)   bands (ev):

  -122.0875-121.2590 -77.2709 -76.3771 -75.6743 -75.6742 -74.9524 -74.9524
    -9.0092  -6.7888  -4.1998  -4.1985  -3.5441  -3.1134  -3.0154  -1.7328
    -1.7126  -1.5826  -1.2574  -0.7892   2.0215   2.1591   3.5904   6.6324
     7.0771   7.5987

          k = 0.3333 0.5774 0.1017 (  3204 PWs)   bands (ev):

  -122.0875-121.2590 -77.2727 -76.3789 -75.6745 -75.6745 -74.9527 -74.9527
    -9.0115  -6.7935  -4.2119  -4.2112  -3.5561  -3.1261  -3.0250  -1.7273
    -1.7130  -1.5891  -1.2584  -0.7919   2.0327   2.0817   3.5486   6.8453
     7.2587   7.4399

          k = 0.3333 0.5774 0.2034 (  3180 PWs)   bands (ev):

  -122.0875-121.2590 -77.2720 -76.3782 -75.6738 -75.6738 -74.9520 -74.9520
    -9.0103  -6.7928  -4.2015  -4.2011  -3.5612  -3.1152  -3.0160  -1.7078
    -1.7037  -1.5825  -1.2534  -0.7846   1.9482   2.0686   3.4773   7.1922
     7.3227   7.6969

          k = 0.3333 0.5774-0.3051 (  3168 PWs)   bands (ev):

  -122.0875-121.2590 -77.2718 -76.3780 -75.6733 -75.6732 -74.9515 -74.9514
    -9.0093  -6.7919  -4.2012  -4.1983  -3.5624  -3.1129  -3.0121  -1.6966
    -1.6965  -1.5780  -1.2478  -0.7760   1.8849   2.0867   3.4421   7.0807
     7.6031   7.9837

          k = 0.0000-0.1925 0.1017 (  3183 PWs)   bands (ev):

  -122.0875-121.2590 -77.2726 -76.3788 -75.6733 -75.6733 -74.9515 -74.9514
    -9.3453  -6.8518  -4.2175  -4.1142  -3.9845  -3.0435  -3.0031  -1.7079
    -1.6824  -1.5582  -1.4233  -1.1490   2.7700   3.6692   4.3438   6.7869
     8.0686   8.3688

          k = 0.0000-0.1925 0.2034 (  3169 PWs)   bands (ev):

  -122.0875-121.2590 -77.2719 -76.3781 -75.6730 -75.6729 -74.9512 -74.9511
    -9.3397  -6.8549  -4.2193  -4.1046  -3.9830  -3.0391  -2.9972  -1.7130
    -1.6740  -1.5576  -1.4150  -1.2038   3.0258   3.7275   4.3625   6.4661
     7.9118   8.3159

          k = 0.0000-0.3849 0.1017 (  3190 PWs)   bands (ev):

  -122.0875-121.2590 -77.2723 -76.3785 -75.6747 -75.6734 -74.9529 -74.9516
    -9.1564  -6.8211  -4.2590  -4.1211  -3.7730  -3.1033  -2.9912  -1.7467
    -1.6697  -1.6010  -1.3268  -0.9198   2.0762   3.3802   3.6948   6.1077
     7.8190   8.4610

          k = 0.0000-0.3849 0.2034 (  3193 PWs)   bands (ev):

  -122.0875-121.2590 -77.2720 -76.3782 -75.6752 -75.6737 -74.9533 -74.9518
    -9.1530  -6.8209  -4.2600  -4.1198  -3.7743  -3.1025  -2.9967  -1.7524
    -1.6758  -1.5906  -1.3318  -0.9466   1.9749   3.5248   3.7136   6.2832
     7.8719   8.3618

          k =-0.1667-0.4811 0.1017 (  3192 PWs)   bands (ev):

  -122.0875-121.2590 -77.2719 -76.3781 -75.6747 -75.6742 -74.9529 -74.9523
    -9.0591  -6.8028  -4.2468  -4.1502  -3.6361  -3.1146  -3.0042  -1.7424
    -1.6945  -1.5914  -1.2678  -0.8697   1.8594   2.8353   3.5156   6.4081
     7.4520   7.9772

          k =-0.1667-0.4811 0.2034 (  3190 PWs)   bands (ev):

  -122.0875-121.2590 -77.2722 -76.3784 -75.6749 -75.6735 -74.9531 -74.9517
    -9.0574  -6.8028  -4.2523  -4.1477  -3.6395  -3.1208  -3.0045  -1.7382
    -1.6851  -1.5839  -1.2668  -0.8706   1.7471   2.8420   3.5113   6.7495
     7.6270   7.9763

     highest occupied level (ev):     8.5133

!    total energy              =    -839.43746370 Ry
     estimated scf accuracy    <          2.4E-09 Ry

     The total energy is the sum of the following terms:
     one-electron contribution =    -831.43791017 Ry
     hartree contribution      =     417.63903101 Ry
     xc contribution           =     -82.72998333 Ry
     ewald contribution        =    -342.90860121 Ry

     convergence has been achieved in  12 iterations

     Writing all to output data dir ./SCRATCH/zns_w.save/

     init_run     :      1.53s CPU      1.59s WALL (       1 calls)
     electrons    :     71.00s CPU     71.59s WALL (       1 calls)

     Called by init_run:
     wfcinit      :      1.47s CPU      1.48s WALL (       1 calls)
     potinit      :      0.02s CPU      0.05s WALL (       1 calls)
     hinit0       :      0.03s CPU      0.04s WALL (       1 calls)

     Called by electrons:
     c_bands      :     65.48s CPU     66.03s WALL (      12 calls)
     sum_band     :      5.22s CPU      5.26s WALL (      12 calls)
     v_of_rho     :      0.27s CPU      0.28s WALL (      13 calls)
     mix_rho      :      0.02s CPU      0.04s WALL (      12 calls)

     Called by c_bands:
     init_us_2    :      0.61s CPU      0.63s WALL (     850 calls)
     init_us_2:cp :      0.61s CPU      0.62s WALL (     850 calls)
     cegterg      :     64.16s CPU     64.47s WALL (     408 calls)

     Called by *egterg:
     cdiaghg      :      1.36s CPU      1.48s WALL (    2582 calls)
     h_psi        :     44.03s CPU     44.61s WALL (    2616 calls)
     g_psi        :      0.22s CPU      0.22s WALL (    2174 calls)

     Called by h_psi:
     h_psi:calbec :      6.42s CPU      6.27s WALL (    2616 calls)
     vloc_psi     :     32.89s CPU     33.61s WALL (    2616 calls)
     add_vuspsi   :      4.61s CPU      4.45s WALL (    2616 calls)

     General routines
     calbec       :      6.42s CPU      6.26s WALL (    2616 calls)
     fft          :      0.16s CPU      0.10s WALL (     129 calls)
     ffts         :      0.02s CPU      0.01s WALL (      12 calls)
     fftw         :     33.56s CPU     34.32s WALL (   82906 calls)


     PWSCF        :   1m12.53s CPU   1m13.24s WALL


   This run was terminated on:  12:38:47   9Jun2024            

=------------------------------------------------------------------------------=
   JOB DONE.
=------------------------------------------------------------------------------=
