
     Program PWSCF v.7.2 starts on 10Jun2024 at  9:30:47 

     This program is part of the open-source Quantum ESPRESSO suite
     for quantum simulation of materials; please cite
         "P. Giannozzi et al., J. Phys.:Condens. Matter 21 395502 (2009);
         "P. Giannozzi et al., J. Phys.:Condens. Matter 29 465901 (2017);
         "P. Giannozzi et al., J. Chem. Phys. 152 154105 (2020);
          URL http://www.quantum-espresso.org", 
     in publications or presentations arising from this work. More details at
     http://www.quantum-espresso.org/quote

     Serial version
     9426 MiB available memory on the printing compute node when the environment starts

     Waiting for input...
     Reading input from standard input

     Current dimensions of program PWSCF are:
     Max number of different atomic species (ntypx) = 10
     Max number of k-points (npk) =  40000
     Max angular momentum in pseudopotentials (lmaxx) =  4


     G-vector sticks info
     --------------------
     sticks:   dense  smooth     PW     G-vecs:    dense   smooth      PW
     Sum         745     745    223                27151    27151    4319

     Using Slab Decomposition



     bravais-lattice index     =            4
     lattice parameter (alat)  =       7.3631  a.u.
     unit-cell volume          =     566.5376 (a.u.)^3
     number of atoms/cell      =            4
     number of atomic types    =            2
     number of electrons       =        52.00
     number of Kohn-Sham states=           26
     kinetic-energy cutoff     =      50.0000  Ry
     charge density cutoff     =     200.0000  Ry
     scf convergence threshold =      1.0E-08
     mixing beta               =       0.7000
     number of iterations used =            8  plain     mixing
     Exchange-correlation= PBE
                           (   1   4   3   4   0   0   0)

     celldm(1)=   7.363128  celldm(2)=   0.000000  celldm(3)=   1.638743
     celldm(4)=   0.000000  celldm(5)=   0.000000  celldm(6)=   0.000000

     crystal axes: (cart. coord. in units of alat)
               a(1) = (   1.000000   0.000000   0.000000 )  
               a(2) = (  -0.500000   0.866025   0.000000 )  
               a(3) = (   0.000000   0.000000   1.638743 )  

     reciprocal axes: (cart. coord. in units 2 pi/alat)
               b(1) = (  1.000000  0.577350 -0.000000 )  
               b(2) = (  0.000000  1.154701  0.000000 )  
               b(3) = (  0.000000 -0.000000  0.610224 )  


     PseudoPot. # 1 for Zn read from file:
     /home/paolo/project_labqsm/pseudopotentials/Zn_ONCV_PBE-1.2.upf
     MD5 check sum: 732f41c0cd6489a4b50a33b4ec99a2d3
     Pseudo is Norm-conserving, Zval = 20.0
     Generated using ONCVPSP code by D. R. Hamann
     Using radial grid of  602 points,  6 beta functions with: 
                l(1) =   0
                l(2) =   0
                l(3) =   1
                l(4) =   1
                l(5) =   2
                l(6) =   2

     PseudoPot. # 2 for S  read from file:
     /home/paolo/project_labqsm/pseudopotentials/S_ONCV_PBE-1.2.upf
     MD5 check sum: f9d020296ee6110346977bfd66d424f6
     Pseudo is Norm-conserving, Zval =  6.0
     Generated using ONCVPSP code by D. R. Hamann
     Using radial grid of  602 points,  4 beta functions with: 
                l(1) =   0
                l(2) =   0
                l(3) =   1
                l(4) =   1

     atomic species   valence    mass     pseudopotential
        Zn            20.00    65.38000     Zn( 1.00)
        S              6.00    32.06000     S ( 1.00)

      6 Sym. Ops. (no inversion) found



   Cartesian axes

     site n.     atom                  positions (alat units)
         1           Zn  tau(   1) = (   0.0000000   0.0000000   0.0000000  )
         2           S   tau(   2) = (   0.0000000   0.0000000   0.3723729  )
         3           Zn  tau(   3) = (   0.0000000   0.5773503   0.5000000  )
         4           S   tau(   4) = (   0.0000000   0.5773503   0.8723729  )

     number of k points=    34
                       cart. coord. in units 2pi/alat
        k(    1) = (   0.0000000   0.0000000   0.0000000), wk =   0.0092593
        k(    2) = (   0.0000000   0.0000000   0.1017039), wk =   0.0185185
        k(    3) = (   0.0000000   0.0000000   0.2034079), wk =   0.0185185
        k(    4) = (   0.0000000   0.0000000  -0.3051118), wk =   0.0092593
        k(    5) = (   0.0000000   0.1924501   0.0000000), wk =   0.0555556
        k(    6) = (   0.0000000   0.1924501   0.1017039), wk =   0.0555556
        k(    7) = (   0.0000000   0.1924501   0.2034079), wk =   0.0555556
        k(    8) = (   0.0000000   0.1924501  -0.3051118), wk =   0.0555556
        k(    9) = (   0.0000000   0.3849002   0.0000000), wk =   0.0555556
        k(   10) = (   0.0000000   0.3849002   0.1017039), wk =   0.0555556
        k(   11) = (   0.0000000   0.3849002   0.2034079), wk =   0.0555556
        k(   12) = (   0.0000000   0.3849002  -0.3051118), wk =   0.0555556
        k(   13) = (   0.0000000  -0.5773503   0.0000000), wk =   0.0277778
        k(   14) = (   0.0000000  -0.5773503   0.1017039), wk =   0.0555556
        k(   15) = (   0.0000000  -0.5773503   0.2034079), wk =   0.0555556
        k(   16) = (   0.0000000  -0.5773503  -0.3051118), wk =   0.0277778
        k(   17) = (   0.1666667   0.2886751   0.0000000), wk =   0.0555556
        k(   18) = (   0.1666667   0.2886751   0.1017039), wk =   0.1111111
        k(   19) = (   0.1666667   0.2886751   0.2034079), wk =   0.1111111
        k(   20) = (   0.1666667   0.2886751  -0.3051118), wk =   0.0555556
        k(   21) = (   0.1666667   0.4811252   0.0000000), wk =   0.1111111
        k(   22) = (   0.1666667   0.4811252   0.1017039), wk =   0.1111111
        k(   23) = (   0.1666667   0.4811252   0.2034079), wk =   0.1111111
        k(   24) = (   0.1666667   0.4811252  -0.3051118), wk =   0.1111111
        k(   25) = (   0.3333333   0.5773503   0.0000000), wk =   0.0185185
        k(   26) = (   0.3333333   0.5773503   0.1017039), wk =   0.0370370
        k(   27) = (   0.3333333   0.5773503   0.2034079), wk =   0.0370370
        k(   28) = (   0.3333333   0.5773503  -0.3051118), wk =   0.0185185
        k(   29) = (   0.0000000  -0.1924501   0.1017039), wk =   0.0555556
        k(   30) = (   0.0000000  -0.1924501   0.2034079), wk =   0.0555556
        k(   31) = (   0.0000000  -0.3849002   0.1017039), wk =   0.0555556
        k(   32) = (   0.0000000  -0.3849002   0.2034079), wk =   0.0555556
        k(   33) = (  -0.1666667  -0.4811252   0.1017039), wk =   0.1111111
        k(   34) = (  -0.1666667  -0.4811252   0.2034079), wk =   0.1111111

     Dense  grid:    27151 G-vectors     FFT dimensions: (  36,  36,  60)

     Estimated max dynamical RAM per process >      74.88 MB

     Initial potential from superposition of free atoms

     starting charge      51.9339, renormalised to      52.0000
     Starting wfcs are random

     total cpu time spent up to now is        1.9 secs

     Self-consistent Calculation

     iteration #  1     ecut=    50.00 Ry     beta= 0.70
     Davidson diagonalization with overlap
     ethr =  1.00E-02,  avg # of iterations = 14.9

     total cpu time spent up to now is       25.5 secs

     total energy              =    -838.93658256 Ry
     estimated scf accuracy    <       1.34237663 Ry

     iteration #  2     ecut=    50.00 Ry     beta= 0.70
     Davidson diagonalization with overlap
     ethr =  2.58E-03,  avg # of iterations =  7.9

     total cpu time spent up to now is       32.8 secs

     total energy              =    -838.34634826 Ry
     estimated scf accuracy    <       7.44860826 Ry

     iteration #  3     ecut=    50.00 Ry     beta= 0.70
     Davidson diagonalization with overlap
     ethr =  2.58E-03,  avg # of iterations =  6.1

     total cpu time spent up to now is       41.7 secs

     total energy              =    -839.64388657 Ry
     estimated scf accuracy    <       0.38423928 Ry

     iteration #  4     ecut=    50.00 Ry     beta= 0.70
     Davidson diagonalization with overlap
     ethr =  7.39E-04,  avg # of iterations =  2.0

     total cpu time spent up to now is       48.5 secs

     total energy              =    -839.66240375 Ry
     estimated scf accuracy    <       0.08432934 Ry

     iteration #  5     ecut=    50.00 Ry     beta= 0.70
     Davidson diagonalization with overlap
     ethr =  1.62E-04,  avg # of iterations =  4.1

     total cpu time spent up to now is       53.7 secs

     total energy              =    -839.67104586 Ry
     estimated scf accuracy    <       0.01333705 Ry

     iteration #  6     ecut=    50.00 Ry     beta= 0.70
     Davidson diagonalization with overlap
     ethr =  2.56E-05,  avg # of iterations =  4.4

     total cpu time spent up to now is       58.7 secs

     total energy              =    -839.67302104 Ry
     estimated scf accuracy    <       0.00126985 Ry

     iteration #  7     ecut=    50.00 Ry     beta= 0.70
     Davidson diagonalization with overlap
     ethr =  2.44E-06,  avg # of iterations =  4.9

     total cpu time spent up to now is       64.1 secs

     total energy              =    -839.67337915 Ry
     estimated scf accuracy    <       0.00049492 Ry

     iteration #  8     ecut=    50.00 Ry     beta= 0.70
     Davidson diagonalization with overlap
     ethr =  9.52E-07,  avg # of iterations =  3.8

     total cpu time spent up to now is       68.8 secs

     total energy              =    -839.67343272 Ry
     estimated scf accuracy    <       0.00002209 Ry

     iteration #  9     ecut=    50.00 Ry     beta= 0.70
     Davidson diagonalization with overlap
     ethr =  4.25E-08,  avg # of iterations =  4.9

     total cpu time spent up to now is       74.2 secs

     total energy              =    -839.67344011 Ry
     estimated scf accuracy    <       0.00000222 Ry

     iteration # 10     ecut=    50.00 Ry     beta= 0.70
     Davidson diagonalization with overlap
     ethr =  4.26E-09,  avg # of iterations =  3.6

     total cpu time spent up to now is       78.8 secs

     total energy              =    -839.67344036 Ry
     estimated scf accuracy    <       0.00000015 Ry

     iteration # 11     ecut=    50.00 Ry     beta= 0.70
     Davidson diagonalization with overlap
     ethr =  2.88E-10,  avg # of iterations =  5.1

     total cpu time spent up to now is       84.3 secs

     total energy              =    -839.67344041 Ry
     estimated scf accuracy    <       0.00000003 Ry

     iteration # 12     ecut=    50.00 Ry     beta= 0.70
     Davidson diagonalization with overlap
     ethr =  4.97E-11,  avg # of iterations =  3.1

     total cpu time spent up to now is       89.0 secs

     End of self-consistent calculation

          k = 0.0000 0.0000 0.0000 (  3369 PWs)   bands (ev):

  -122.5785-121.6297 -77.6451 -76.6344 -76.1969 -76.1969 -75.3408 -75.3408
    -9.8648  -7.2650  -4.4796  -4.4374  -4.4374  -3.2504  -3.2504  -2.2289
    -2.2289  -1.8272  -1.8272  -1.7982   1.8301   4.0476   4.0476   6.3444
     7.4545   7.4545

          k = 0.0000 0.0000 0.1017 (  3387 PWs)   bands (ev):

  -122.5785-121.6298 -77.6447 -76.6340 -76.1978 -76.1978 -75.3417 -75.3417
    -9.8622  -7.2678  -4.4803  -4.4380  -4.4380  -3.2538  -3.2538  -2.2404
    -2.2404  -1.8373  -1.8373  -1.8347   1.9935   4.0502   4.0502   5.9368
     7.4400   7.4400

          k = 0.0000 0.0000 0.2034 (  3393 PWs)   bands (ev):

  -122.5785-121.6298 -77.6446 -76.6339 -76.1977 -76.1977 -75.3417 -75.3417
    -9.8569  -7.2741  -4.4785  -4.4420  -4.4420  -3.2571  -3.2571  -2.2394
    -2.2394  -1.9031  -1.8373  -1.8373   2.3711   4.0627   4.0627   5.2778
     7.4116   7.4116

          k = 0.0000 0.0000-0.3051 (  3400 PWs)   bands (ev):

  -122.5785-121.6298 -77.6443 -76.6335 -76.1982 -76.1982 -75.3421 -75.3421
    -9.8541  -7.2765  -4.4797  -4.4389  -4.4389  -3.2573  -3.2573  -2.2465
    -2.2465  -1.9330  -1.8425  -1.8425   2.6061   4.0671   4.0671   4.9442
     7.3985   7.3985

          k = 0.0000 0.1925 0.0000 (  3397 PWs)   bands (ev):

  -122.5785-121.6298 -77.6445 -76.6338 -76.1986 -76.1984 -75.3426 -75.3423
    -9.7845  -7.2522  -4.5352  -4.4420  -4.3273  -3.2865  -3.2483  -2.2593
    -2.2423  -1.9559  -1.8057  -1.5919   2.0135   2.9907   3.6835   6.3450
     6.9868   7.5931

          k = 0.0000 0.1925 0.1017 (  3388 PWs)   bands (ev):

  -122.5785-121.6298 -77.6444 -76.6337 -76.1982 -76.1979 -75.3421 -75.3418
    -9.7820  -7.2538  -4.5336  -4.4399  -4.3241  -3.2892  -3.2455  -2.2533
    -2.2352  -1.9569  -1.7992  -1.6132   2.1253   2.9886   3.6931   6.3247
     6.8202   7.5613

          k = 0.0000 0.1925 0.2034 (  3392 PWs)   bands (ev):

  -122.5785-121.6298 -77.6445 -76.6337 -76.1982 -76.1981 -75.3421 -75.3420
    -9.7778  -7.2600  -4.5314  -4.4436  -4.3223  -3.2890  -3.2540  -2.2593
    -2.2331  -1.9703  -1.7971  -1.6593   2.3642   3.0025   3.7062   5.9140
     6.8895   7.5106

          k = 0.0000 0.1925-0.3051 (  3406 PWs)   bands (ev):

  -122.5785-121.6298 -77.6446 -76.6339 -76.1987 -76.1987 -75.3426 -75.3426
    -9.7757  -7.2616  -4.5359  -4.4468  -4.3281  -3.2954  -3.2610  -2.2655
    -2.2394  -1.9780  -1.8023  -1.6798   2.4881   3.0275   3.7099   5.6443
     6.9717   7.4921

          k = 0.0000 0.3849 0.0000 (  3388 PWs)   bands (ev):

  -122.5785-121.6298 -77.6449 -76.6342 -76.1986 -76.1979 -75.3425 -75.3419
    -9.6164  -7.2230  -4.5718  -4.4542  -4.1325  -3.3422  -3.2519  -2.2762
    -2.2088  -2.0140  -1.7039  -1.3835   1.5900   2.5542   3.0877   5.5926
     6.7116   7.6964

          k = 0.0000 0.3849 0.1017 (  3378 PWs)   bands (ev):

  -122.5785-121.6297 -77.6445 -76.6338 -76.1982 -76.1977 -75.3422 -75.3417
    -9.6144  -7.2233  -4.5714  -4.4504  -4.1279  -3.3413  -3.2473  -2.2744
    -2.2052  -2.0091  -1.6980  -1.3922   1.5233   2.6163   3.0988   5.8761
     6.5934   7.6470

          k = 0.0000 0.3849 0.2034 (  3375 PWs)   bands (ev):

  -122.5785-121.6297 -77.6443 -76.6336 -76.1981 -76.1979 -75.3420 -75.3418
    -9.6116  -7.2245  -4.5695  -4.4492  -4.1267  -3.3430  -3.2500  -2.2772
    -2.2043  -2.0016  -1.6973  -1.4134   1.4286   2.7390   3.1177   6.1845
     6.5305   7.5605

          k = 0.0000 0.3849-0.3051 (  3362 PWs)   bands (ev):

  -122.5785-121.6297 -77.6437 -76.6329 -76.1979 -76.1975 -75.3419 -75.3414
    -9.6093  -7.2225  -4.5646  -4.4456  -4.1249  -3.3394  -3.2485  -2.2721
    -2.2054  -1.9905  -1.6976  -1.4181   1.3982   2.8063   3.1274   6.0323
     6.7225   7.5246

          k = 0.0000-0.5774 0.0000 (  3402 PWs)   bands (ev):

  -122.5786-121.6298 -77.6450 -76.6342 -76.1993 -76.1992 -75.3432 -75.3431
    -9.5289  -7.2089  -4.5921  -4.4609  -4.0158  -3.3694  -3.2504  -2.3054
    -2.2012  -2.0172  -1.6545  -1.3954   1.1488   2.7684   2.8268   5.6900
     5.9164   7.6985

          k = 0.0000-0.5774 0.1017 (  3392 PWs)   bands (ev):

  -122.5785-121.6298 -77.6448 -76.6341 -76.1989 -76.1987 -75.3428 -75.3426
    -9.5284  -7.2099  -4.5829  -4.4572  -4.0169  -3.3615  -3.2496  -2.2966
    -2.2023  -2.0115  -1.6562  -1.3857   1.0929   2.7643   2.8371   5.6844
     6.2068   7.6459

          k = 0.0000-0.5774 0.2034 (  3372 PWs)   bands (ev):

  -122.5785-121.6297 -77.6436 -76.6329 -76.1990 -76.1980 -75.3429 -75.3419
    -9.5256  -7.2070  -4.5781  -4.4457  -4.0143  -3.3558  -3.2422  -2.2970
    -2.1986  -1.9911  -1.6540  -1.3830   0.9887   2.7397   2.8606   5.9485
     6.5217   7.5480

          k = 0.0000-0.5774-0.3051 (  3392 PWs)   bands (ev):

  -122.5785-121.6298 -77.6445 -76.6337 -76.1999 -76.1985 -75.3439 -75.3424
    -9.5257  -7.2075  -4.5830  -4.4594  -4.0186  -3.3644  -3.2542  -2.3032
    -2.2074  -1.9860  -1.6602  -1.3887   0.9370   2.7214   2.8670   6.3418
     6.3875   7.4925

          k = 0.1667 0.2887 0.0000 (  3382 PWs)   bands (ev):

  -122.5785-121.6297 -77.6450 -76.6342 -76.1981 -76.1977 -75.3420 -75.3416
    -9.6598  -7.2311  -4.5570  -4.4551  -4.1835  -3.3284  -3.2480  -2.2586
    -2.2208  -2.0104  -1.7209  -1.4124   1.9838   2.4624   2.9350   5.9190
     6.9782   7.4563

          k = 0.1667 0.2887 0.1017 (  3377 PWs)   bands (ev):

  -122.5785-121.6297 -77.6442 -76.6335 -76.1981 -76.1980 -75.3420 -75.3419
    -9.6571  -7.2298  -4.5556  -4.4556  -4.1790  -3.3271  -3.2497  -2.2607
    -2.2229  -2.0058  -1.7220  -1.4260   1.9164   2.5719   2.9568   5.9194
     7.0395   7.4094

          k = 0.1667 0.2887 0.2034 (  3380 PWs)   bands (ev):

  -122.5785-121.6297 -77.6445 -76.6337 -76.1980 -76.1979 -75.3419 -75.3418
    -9.6543  -7.2333  -4.5560  -4.4558  -4.1788  -3.3289  -3.2565  -2.2613
    -2.2208  -2.0031  -1.7210  -1.4563   1.8340   2.7170   3.0126   6.0346
     6.9789   7.3212

          k = 0.1667 0.2887-0.3051 (  3388 PWs)   bands (ev):

  -122.5785-121.6298 -77.6447 -76.6340 -76.1982 -76.1980 -75.3422 -75.3419
    -9.6527  -7.2336  -4.5594  -4.4608  -4.1816  -3.3337  -3.2630  -2.2619
    -2.2226  -1.9989  -1.7224  -1.4677   1.8048   2.7640   3.0450   6.2089
     6.7919   7.2703

          k = 0.1667 0.4811 0.0000 (  3393 PWs)   bands (ev):

  -122.5785-121.6298 -77.6449 -76.6342 -76.1990 -76.1984 -75.3429 -75.3423
    -9.5308  -7.2086  -4.5693  -4.4782  -4.0134  -3.3575  -3.2575  -2.2785
    -2.2208  -2.0348  -1.6537  -1.3253   1.3626   2.3022   2.7737   5.7078
     6.4239   7.2780

          k = 0.1667 0.4811 0.1017 (  3382 PWs)   bands (ev):

  -122.5785-121.6297 -77.6447 -76.6339 -76.1986 -76.1979 -75.3426 -75.3419
    -9.5297  -7.2079  -4.5656  -4.4754  -4.0117  -3.3541  -3.2566  -2.2714
    -2.2191  -2.0266  -1.6511  -1.3202   1.3057   2.3020   2.7816   5.9220
     6.5059   7.1783

          k = 0.1667 0.4811 0.2034 (  3378 PWs)   bands (ev):

  -122.5785-121.6297 -77.6442 -76.6334 -76.1988 -76.1979 -75.3427 -75.3418
    -9.5267  -7.2053  -4.5630  -4.4767  -4.0104  -3.3543  -3.2602  -2.2723
    -2.2181  -2.0095  -1.6524  -1.3220   1.2055   2.3084   2.7828   6.2819
     6.7255   7.0678

          k = 0.1667 0.4811-0.3051 (  3374 PWs)   bands (ev):

  -122.5785-121.6297 -77.6440 -76.6333 -76.1983 -76.1982 -75.3422 -75.3421
    -9.5259  -7.2053  -4.5576  -4.4775  -4.0121  -3.3490  -3.2631  -2.2712
    -2.2178  -2.0007  -1.6529  -1.3239   1.1631   2.3145   2.7804   6.4156
     6.7779   7.1443

          k = 0.3333 0.5774 0.0000 (  3408 PWs)   bands (ev):

  -122.5786-121.6298 -77.6447 -76.6340 -76.1996 -76.1996 -75.3435 -75.3435
    -9.4871  -7.1988  -4.5345  -4.5339  -3.9442  -3.3604  -3.2739  -2.2687
    -2.2640  -2.0393  -1.6524  -1.2573   1.5518   1.5645   2.8598   5.9065
     6.3519   6.8814

          k = 0.3333 0.5774 0.1017 (  3390 PWs)   bands (ev):

  -122.5785-121.6298 -77.6451 -76.6343 -76.1984 -76.1984 -75.3424 -75.3424
    -9.4878  -7.2006  -4.5281  -4.5276  -3.9489  -3.3541  -3.2691  -2.2535
    -2.2480  -2.0365  -1.6406  -1.2448   1.4899   1.5806   2.8268   6.0979
     6.5196   6.7531

          k = 0.3333 0.5774 0.2034 (  3384 PWs)   bands (ev):

  -122.5785-121.6298 -77.6443 -76.6336 -76.1987 -76.1987 -75.3426 -75.3426
    -9.4850  -7.1964  -4.5262  -4.5215  -3.9467  -3.3518  -3.2737  -2.2527
    -2.2514  -2.0161  -1.6430  -1.2463   1.3690   1.6095   2.7672   6.5184
     6.5313   6.9156

          k = 0.3333 0.5774-0.3051 (  3378 PWs)   bands (ev):

  -122.5785-121.6297 -77.6442 -76.6334 -76.1985 -76.1985 -75.3424 -75.3424
    -9.4844  -7.1960  -4.5245  -4.5202  -3.9487  -3.3500  -3.2710  -2.2494
    -2.2490  -2.0093  -1.6413  -1.2449   1.3122   1.6246   2.7390   6.4318
     6.7595   7.1751

          k = 0.0000-0.1925 0.1017 (  3388 PWs)   bands (ev):

  -122.5785-121.6298 -77.6444 -76.6337 -76.1982 -76.1978 -75.3421 -75.3418
    -9.7819  -7.2542  -4.5338  -4.4372  -4.3247  -3.2878  -3.2490  -2.2543
    -2.2351  -1.9563  -1.7995  -1.6128   2.1243   3.0150   3.6907   6.0069
     7.1973   7.5778

          k = 0.0000-0.1925 0.2034 (  3392 PWs)   bands (ev):

  -122.5785-121.6298 -77.6445 -76.6337 -76.1982 -76.1981 -75.3421 -75.3420
    -9.7778  -7.2601  -4.5309  -4.4422  -4.3235  -3.2902  -3.2552  -2.2596
    -2.2335  -1.9692  -1.7980  -1.6580   2.3573   3.0393   3.7049   5.7025
     7.1241   7.5259

          k = 0.0000-0.3849 0.1017 (  3378 PWs)   bands (ev):

  -122.5785-121.6297 -77.6445 -76.6337 -76.1982 -76.1977 -75.3422 -75.3417
    -9.6144  -7.2232  -4.5684  -4.4493  -4.1291  -3.3432  -3.2477  -2.2756
    -2.2062  -2.0100  -1.6985  -1.3946   1.5359   2.6582   3.0983   5.4449
     6.9684   7.6584

          k = 0.0000-0.3849 0.2034 (  3375 PWs)   bands (ev):

  -122.5785-121.6297 -77.6443 -76.6336 -76.1981 -76.1979 -75.3420 -75.3418
    -9.6116  -7.2239  -4.5697  -4.4497  -4.1293  -3.3425  -3.2493  -2.2790
    -2.2048  -1.9990  -1.6969  -1.4155   1.4411   2.7810   3.1165   5.6033
     7.0352   7.5706

          k =-0.1667-0.4811 0.1017 (  3382 PWs)   bands (ev):

  -122.5785-121.6297 -77.6447 -76.6340 -76.1986 -76.1979 -75.3426 -75.3419
    -9.5296  -7.2078  -4.5648  -4.4761  -4.0131  -3.3547  -3.2562  -2.2725
    -2.2183  -2.0250  -1.6503  -1.3221   1.3128   2.3033   2.7876   5.7318
     6.6534   7.2261

          k =-0.1667-0.4811 0.2034 (  3378 PWs)   bands (ev):

  -122.5785-121.6297 -77.6442 -76.6334 -76.1988 -76.1979 -75.3427 -75.3418
    -9.5267  -7.2054  -4.5634  -4.4755  -4.0099  -3.3545  -3.2612  -2.2739
    -2.2177  -2.0081  -1.6521  -1.3247   1.2121   2.3095   2.7890   6.0431
     6.8419   7.1928

     highest occupied level (ev):     7.6985

!    total energy              =    -839.67344041 Ry
     estimated scf accuracy    <          1.1E-09 Ry

     The total energy is the sum of the following terms:
     one-electron contribution =    -843.65294410 Ry
     hartree contribution      =     422.75863516 Ry
     xc contribution           =     -82.59422679 Ry
     ewald contribution        =    -336.18490469 Ry

     convergence has been achieved in  12 iterations

     Writing all to output data dir ./SCRATCH/zns_w.save/

     init_run     :      1.86s CPU      1.91s WALL (       1 calls)
     electrons    :     86.36s CPU     87.07s WALL (       1 calls)

     Called by init_run:
     wfcinit      :      1.77s CPU      1.79s WALL (       1 calls)
     potinit      :      0.05s CPU      0.06s WALL (       1 calls)
     hinit0       :      0.03s CPU      0.04s WALL (       1 calls)

     Called by electrons:
     c_bands      :     79.53s CPU     80.14s WALL (      12 calls)
     sum_band     :      6.52s CPU      6.58s WALL (      12 calls)
     v_of_rho     :      0.30s CPU      0.33s WALL (      13 calls)
     mix_rho      :      0.03s CPU      0.04s WALL (      12 calls)

     Called by c_bands:
     init_us_2    :      0.66s CPU      0.74s WALL (     850 calls)
     init_us_2:cp :      0.66s CPU      0.73s WALL (     850 calls)
     cegterg      :     77.91s CPU     78.29s WALL (     408 calls)

     Called by *egterg:
     cdiaghg      :      1.47s CPU      1.60s WALL (    2612 calls)
     h_psi        :     54.61s CPU     55.10s WALL (    2646 calls)
     g_psi        :      0.25s CPU      0.25s WALL (    2204 calls)

     Called by h_psi:
     h_psi:calbec :      7.16s CPU      7.64s WALL (    2646 calls)
     vloc_psi     :     41.67s CPU     41.85s WALL (    2646 calls)
     add_vuspsi   :      5.59s CPU      5.30s WALL (    2646 calls)

     General routines
     calbec       :      7.16s CPU      7.62s WALL (    2646 calls)
     fft          :      0.06s CPU      0.11s WALL (     129 calls)
     ffts         :      0.00s CPU      0.01s WALL (      12 calls)
     fftw         :     43.28s CPU     42.90s WALL (   83100 calls)


     PWSCF        :   1m28.23s CPU   1m29.04s WALL


   This run was terminated on:   9:32:16  10Jun2024            

=------------------------------------------------------------------------------=
   JOB DONE.
=------------------------------------------------------------------------------=
