
     Program PWSCF v.7.2 starts on  9Jun2024 at 12:36:42 

     This program is part of the open-source Quantum ESPRESSO suite
     for quantum simulation of materials; please cite
         "P. Giannozzi et al., J. Phys.:Condens. Matter 21 395502 (2009);
         "P. Giannozzi et al., J. Phys.:Condens. Matter 29 465901 (2017);
         "P. Giannozzi et al., J. Chem. Phys. 152 154105 (2020);
          URL http://www.quantum-espresso.org", 
     in publications or presentations arising from this work. More details at
     http://www.quantum-espresso.org/quote

     Serial version
     8742 MiB available memory on the printing compute node when the environment starts

     Waiting for input...
     Reading input from standard input

     Current dimensions of program PWSCF are:
     Max number of different atomic species (ntypx) = 10
     Max number of k-points (npk) =  40000
     Max angular momentum in pseudopotentials (lmaxx) =  4


     G-vector sticks info
     --------------------
     sticks:   dense  smooth     PW     G-vecs:    dense   smooth      PW
     Sum         583     583    163                18341    18341    3009

     Using Slab Decomposition



     bravais-lattice index     =            4
     lattice parameter (alat)  =       7.2188  a.u.
     unit-cell volume          =     533.8610 (a.u.)^3
     number of atoms/cell      =            4
     number of atomic types    =            2
     number of electrons       =        52.00
     number of Kohn-Sham states=           26
     kinetic-energy cutoff     =      40.0000  Ry
     charge density cutoff     =     160.0000  Ry
     scf convergence threshold =      1.0E-08
     mixing beta               =       0.7000
     number of iterations used =            8  plain     mixing
     Exchange-correlation= PBE
                           (   1   4   3   4   0   0   0)

     celldm(1)=   7.218753  celldm(2)=   0.000000  celldm(3)=   1.638743
     celldm(4)=   0.000000  celldm(5)=   0.000000  celldm(6)=   0.000000

     crystal axes: (cart. coord. in units of alat)
               a(1) = (   1.000000   0.000000   0.000000 )  
               a(2) = (  -0.500000   0.866025   0.000000 )  
               a(3) = (   0.000000   0.000000   1.638743 )  

     reciprocal axes: (cart. coord. in units 2 pi/alat)
               b(1) = (  1.000000  0.577350 -0.000000 )  
               b(2) = (  0.000000  1.154701  0.000000 )  
               b(3) = (  0.000000 -0.000000  0.610224 )  


     PseudoPot. # 1 for Zn read from file:
     /home/paolo/project_labqsm/pseudopotentials/Zn_ONCV_PBE-1.2.upf
     MD5 check sum: 732f41c0cd6489a4b50a33b4ec99a2d3
     Pseudo is Norm-conserving, Zval = 20.0
     Generated using ONCVPSP code by D. R. Hamann
     Using radial grid of  602 points,  6 beta functions with: 
                l(1) =   0
                l(2) =   0
                l(3) =   1
                l(4) =   1
                l(5) =   2
                l(6) =   2

     PseudoPot. # 2 for S  read from file:
     /home/paolo/project_labqsm/pseudopotentials/S_ONCV_PBE-1.2.upf
     MD5 check sum: f9d020296ee6110346977bfd66d424f6
     Pseudo is Norm-conserving, Zval =  6.0
     Generated using ONCVPSP code by D. R. Hamann
     Using radial grid of  602 points,  4 beta functions with: 
                l(1) =   0
                l(2) =   0
                l(3) =   1
                l(4) =   1

     atomic species   valence    mass     pseudopotential
        Zn            20.00    65.38000     Zn( 1.00)
        S              6.00    32.06000     S ( 1.00)

      6 Sym. Ops. (no inversion) found



   Cartesian axes

     site n.     atom                  positions (alat units)
         1           Zn  tau(   1) = (   0.0000000   0.0000000   0.0000000  )
         2           S   tau(   2) = (   0.0000000   0.0000000   0.3723729  )
         3           Zn  tau(   3) = (   0.0000000   0.5773503   0.5000000  )
         4           S   tau(   4) = (   0.0000000   0.5773503   0.8723729  )

     number of k points=    34
                       cart. coord. in units 2pi/alat
        k(    1) = (   0.0000000   0.0000000   0.0000000), wk =   0.0092593
        k(    2) = (   0.0000000   0.0000000   0.1017039), wk =   0.0185185
        k(    3) = (   0.0000000   0.0000000   0.2034079), wk =   0.0185185
        k(    4) = (   0.0000000   0.0000000  -0.3051118), wk =   0.0092593
        k(    5) = (   0.0000000   0.1924501   0.0000000), wk =   0.0555556
        k(    6) = (   0.0000000   0.1924501   0.1017039), wk =   0.0555556
        k(    7) = (   0.0000000   0.1924501   0.2034079), wk =   0.0555556
        k(    8) = (   0.0000000   0.1924501  -0.3051118), wk =   0.0555556
        k(    9) = (   0.0000000   0.3849002   0.0000000), wk =   0.0555556
        k(   10) = (   0.0000000   0.3849002   0.1017039), wk =   0.0555556
        k(   11) = (   0.0000000   0.3849002   0.2034079), wk =   0.0555556
        k(   12) = (   0.0000000   0.3849002  -0.3051118), wk =   0.0555556
        k(   13) = (   0.0000000  -0.5773503   0.0000000), wk =   0.0277778
        k(   14) = (   0.0000000  -0.5773503   0.1017039), wk =   0.0555556
        k(   15) = (   0.0000000  -0.5773503   0.2034079), wk =   0.0555556
        k(   16) = (   0.0000000  -0.5773503  -0.3051118), wk =   0.0277778
        k(   17) = (   0.1666667   0.2886751   0.0000000), wk =   0.0555556
        k(   18) = (   0.1666667   0.2886751   0.1017039), wk =   0.1111111
        k(   19) = (   0.1666667   0.2886751   0.2034079), wk =   0.1111111
        k(   20) = (   0.1666667   0.2886751  -0.3051118), wk =   0.0555556
        k(   21) = (   0.1666667   0.4811252   0.0000000), wk =   0.1111111
        k(   22) = (   0.1666667   0.4811252   0.1017039), wk =   0.1111111
        k(   23) = (   0.1666667   0.4811252   0.2034079), wk =   0.1111111
        k(   24) = (   0.1666667   0.4811252  -0.3051118), wk =   0.1111111
        k(   25) = (   0.3333333   0.5773503   0.0000000), wk =   0.0185185
        k(   26) = (   0.3333333   0.5773503   0.1017039), wk =   0.0370370
        k(   27) = (   0.3333333   0.5773503   0.2034079), wk =   0.0370370
        k(   28) = (   0.3333333   0.5773503  -0.3051118), wk =   0.0185185
        k(   29) = (   0.0000000  -0.1924501   0.1017039), wk =   0.0555556
        k(   30) = (   0.0000000  -0.1924501   0.2034079), wk =   0.0555556
        k(   31) = (   0.0000000  -0.3849002   0.1017039), wk =   0.0555556
        k(   32) = (   0.0000000  -0.3849002   0.2034079), wk =   0.0555556
        k(   33) = (  -0.1666667  -0.4811252   0.1017039), wk =   0.1111111
        k(   34) = (  -0.1666667  -0.4811252   0.2034079), wk =   0.1111111

     Dense  grid:    18341 G-vectors     FFT dimensions: (  30,  30,  48)

     Estimated max dynamical RAM per process >      50.43 MB

     Initial potential from superposition of free atoms

     starting charge      51.9339, renormalised to      52.0000
     Starting wfcs are random

     total cpu time spent up to now is        1.1 secs

     Self-consistent Calculation

     iteration #  1     ecut=    40.00 Ry     beta= 0.70
     Davidson diagonalization with overlap
     ethr =  1.00E-02,  avg # of iterations = 14.6

     total cpu time spent up to now is       14.7 secs

     total energy              =    -836.08417132 Ry
     estimated scf accuracy    <       2.37010087 Ry

     iteration #  2     ecut=    40.00 Ry     beta= 0.70
     Davidson diagonalization with overlap
     ethr =  4.56E-03,  avg # of iterations =  6.2

     total cpu time spent up to now is       19.1 secs

     total energy              =    -835.60218933 Ry
     estimated scf accuracy    <       8.47259184 Ry

     iteration #  3     ecut=    40.00 Ry     beta= 0.70
     Davidson diagonalization with overlap
     ethr =  4.56E-03,  avg # of iterations =  5.6

     total cpu time spent up to now is       22.7 secs

     total energy              =    -837.28103276 Ry
     estimated scf accuracy    <       0.79960802 Ry

     iteration #  4     ecut=    40.00 Ry     beta= 0.70
     Davidson diagonalization with overlap
     ethr =  1.54E-03,  avg # of iterations =  2.1

     total cpu time spent up to now is       25.5 secs

     total energy              =    -837.32747970 Ry
     estimated scf accuracy    <       0.13371068 Ry

     iteration #  5     ecut=    40.00 Ry     beta= 0.70
     Davidson diagonalization with overlap
     ethr =  2.57E-04,  avg # of iterations =  4.1

     total cpu time spent up to now is       28.4 secs

     total energy              =    -837.34137260 Ry
     estimated scf accuracy    <       0.01066720 Ry

     iteration #  6     ecut=    40.00 Ry     beta= 0.70
     Davidson diagonalization with overlap
     ethr =  2.05E-05,  avg # of iterations =  4.4

     total cpu time spent up to now is       31.6 secs

     total energy              =    -837.34355440 Ry
     estimated scf accuracy    <       0.00104612 Ry

     iteration #  7     ecut=    40.00 Ry     beta= 0.70
     Davidson diagonalization with overlap
     ethr =  2.01E-06,  avg # of iterations =  4.7

     total cpu time spent up to now is       35.2 secs

     total energy              =    -837.34384147 Ry
     estimated scf accuracy    <       0.00063982 Ry

     iteration #  8     ecut=    40.00 Ry     beta= 0.70
     Davidson diagonalization with overlap
     ethr =  1.23E-06,  avg # of iterations =  3.0

     total cpu time spent up to now is       38.0 secs

     total energy              =    -837.34395824 Ry
     estimated scf accuracy    <       0.00000885 Ry

     iteration #  9     ecut=    40.00 Ry     beta= 0.70
     Davidson diagonalization with overlap
     ethr =  1.70E-08,  avg # of iterations =  5.1

     total cpu time spent up to now is       41.9 secs

     total energy              =    -837.34396154 Ry
     estimated scf accuracy    <       0.00000552 Ry

     iteration # 10     ecut=    40.00 Ry     beta= 0.70
     Davidson diagonalization with overlap
     ethr =  1.06E-08,  avg # of iterations =  3.1

     total cpu time spent up to now is       44.7 secs

     total energy              =    -837.34396220 Ry
     estimated scf accuracy    <       0.00000021 Ry

     iteration # 11     ecut=    40.00 Ry     beta= 0.70
     Davidson diagonalization with overlap
     ethr =  3.97E-10,  avg # of iterations =  5.0

     total cpu time spent up to now is       48.5 secs

     total energy              =    -837.34396228 Ry
     estimated scf accuracy    <       0.00000019 Ry

     iteration # 12     ecut=    40.00 Ry     beta= 0.70
     Davidson diagonalization with overlap
     ethr =  3.62E-10,  avg # of iterations =  3.0

     total cpu time spent up to now is       51.4 secs

     End of self-consistent calculation

          k = 0.0000 0.0000 0.0000 (  2297 PWs)   bands (ev):

  -126.2480-125.4649 -80.1253 -79.2732 -78.5675 -78.5675 -77.8919 -77.8919
    -9.7443  -7.3901  -4.7039  -4.7039  -4.6335  -3.6497  -3.6497  -2.3516
    -2.3516  -2.1249  -2.1249  -1.5431   2.3710   4.7266   4.7266   7.1884
     8.2913   8.2913

          k = 0.0000 0.0000 0.1017 (  2280 PWs)   bands (ev):

  -126.2479-125.4648 -80.1172 -79.2647 -78.5469 -78.5469 -77.8695 -77.8695
    -9.7419  -7.3807  -4.6899  -4.6899  -4.6535  -3.5483  -3.5483  -2.2967
    -2.2967  -2.0238  -2.0238  -1.5656   2.5552   4.7647   4.7647   6.7776
     8.2764   8.2764

          k = 0.0000 0.0000 0.2034 (  2298 PWs)   bands (ev):

  -126.2479-125.4648 -80.1499 -79.2972 -78.5502 -78.5502 -77.8724 -77.8724
    -9.7655  -7.4440  -4.7441  -4.7441  -4.7422  -3.6036  -3.6036  -2.2956
    -2.2956  -2.0091  -2.0091  -1.7017   2.9795   4.7631   4.7631   6.0329
     8.2345   8.2345

          k = 0.0000 0.0000-0.3051 (  2292 PWs)   bands (ev):

  -126.2479-125.4648 -80.1405 -79.2854 -78.5488 -78.5488 -77.8646 -77.8646
    -9.7433  -7.3830  -4.7748  -4.7748  -4.7273  -3.5768  -3.5768  -2.3735
    -2.3735  -1.9293  -1.9293  -1.6484   3.2502   4.7879   4.7879   5.6917
     8.2036   8.2036

          k = 0.0000 0.1925 0.0000 (  2269 PWs)   bands (ev):

  -126.2479-125.4648 -80.1165 -79.2645 -78.5416 -78.5289 -77.8655 -77.8537
    -9.6545  -7.3509  -4.7344  -4.7051  -4.4438  -3.6082  -3.5692  -2.2507
    -2.2099  -1.9945  -1.9674  -1.3617   2.5673   3.6016   4.3431   7.1615
     7.8907   8.4654

          k = 0.0000 0.1925 0.1017 (  2277 PWs)   bands (ev):

  -126.2479-125.4648 -80.1307 -79.2788 -78.5383 -78.5370 -77.8631 -77.8616
    -9.6654  -7.3831  -4.7771  -4.6850  -4.4694  -3.6357  -3.5950  -2.2378
    -2.2002  -2.0427  -1.9609  -1.4314   2.6889   3.5900   4.3556   7.1529
     7.6489   8.4313

          k = 0.0000 0.1925 0.2034 (  2296 PWs)   bands (ev):

  -126.2479-125.4648 -80.1559 -79.3035 -78.5494 -78.5481 -77.8737 -77.8726
    -9.6856  -7.4241  -4.8115  -4.7636  -4.5551  -3.6701  -3.6349  -2.2608
    -2.2461  -2.0661  -2.0030  -1.5207   2.9423   3.6061   4.3576   6.7036
     7.6677   8.3514

          k = 0.0000 0.1925-0.3051 (  2296 PWs)   bands (ev):

  -126.2479-125.4648 -80.1527 -79.3000 -78.5566 -78.5467 -77.8799 -77.8719
    -9.6827  -7.4244  -4.7988  -4.7892  -4.5540  -3.6625  -3.6250  -2.2774
    -2.2577  -2.0842  -2.0025  -1.5524   3.0782   3.6548   4.3657   6.3996
     7.7581   8.3196

          k = 0.0000 0.3849 0.0000 (  2282 PWs)   bands (ev):

  -126.2479-125.4648 -80.1453 -79.2933 -78.5493 -78.5403 -77.8738 -77.8652
    -9.5191  -7.3708  -4.8654  -4.7118  -4.2320  -3.7558  -3.5684  -2.3267
    -2.1982  -2.0267  -1.8637  -1.2928   2.0756   3.1373   3.6921   6.2699
     7.5194   8.5875

          k = 0.0000 0.3849 0.1017 (  2273 PWs)   bands (ev):

  -126.2479-125.4648 -80.1347 -79.2827 -78.5419 -78.5347 -77.8669 -77.8595
    -9.5064  -7.3589  -4.7875  -4.7342  -4.1883  -3.6946  -3.6014  -2.3067
    -2.1693  -2.0126  -1.8410  -1.2920   2.0129   3.2180   3.6972   6.5843
     7.3981   8.5205

          k = 0.0000 0.3849 0.2034 (  2277 PWs)   bands (ev):

  -126.2479-125.4648 -80.1398 -79.2880 -78.5402 -78.5376 -77.8652 -77.8619
    -9.5101  -7.3647  -4.7910  -4.7523  -4.2207  -3.6917  -3.5986  -2.2626
    -2.1880  -2.0219  -1.8541  -1.3163   1.8974   3.3561   3.7246   6.9105
     7.3359   8.4120

          k = 0.0000 0.3849-0.3051 (  2286 PWs)   bands (ev):

  -126.2479-125.4648 -80.1492 -79.2968 -78.5462 -78.5437 -77.8710 -77.8672
    -9.5189  -7.3743  -4.8120  -4.8095  -4.2433  -3.7257  -3.5928  -2.2612
    -2.2312  -2.0314  -1.8737  -1.3385   1.8549   3.4249   3.7289   6.7678
     7.5150   8.3501

          k = 0.0000-0.5774 0.0000 (  2296 PWs)   bands (ev):

  -126.2480-125.4649 -80.1476 -79.2955 -78.5784 -78.5533 -77.9028 -77.8777
    -9.4409  -7.3641  -4.8917  -4.7436  -4.1002  -3.8231  -3.5828  -2.3798
    -2.3254  -1.9076  -1.8793  -1.5438   1.6260   3.3497   3.4075   6.3553
     6.6230   8.5833

          k = 0.0000-0.5774 0.1017 (  2280 PWs)   bands (ev):

  -126.2479-125.4648 -80.1393 -79.2873 -78.5589 -78.5356 -77.8836 -77.8598
    -9.4388  -7.3651  -4.8224  -4.7183  -4.0780  -3.7465  -3.5378  -2.3311
    -2.2262  -1.9041  -1.7984  -1.5127   1.5863   3.3486   3.4266   6.3640
     6.9427   8.5250

          k = 0.0000-0.5774 0.2034 (  2284 PWs)   bands (ev):

  -126.2479-125.4648 -80.1470 -79.2950 -78.5539 -78.5399 -77.8783 -77.8638
    -9.4405  -7.3622  -4.8195  -4.7674  -4.0825  -3.7448  -3.6016  -2.3045
    -2.2318  -1.8918  -1.7984  -1.5085   1.4729   3.3167   3.4413   6.6679
     7.2954   8.3890

          k = 0.0000-0.5774-0.3051 (  2288 PWs)   bands (ev):

  -126.2480-125.4648 -80.1425 -79.2903 -78.5570 -78.5539 -77.8805 -77.8782
    -9.4358  -7.3544  -4.8076  -4.7988  -4.0952  -3.7188  -3.6315  -2.3658
    -2.2297  -1.8744  -1.8148  -1.5596   1.4193   3.3015   3.4429   7.1123
     7.1474   8.3188

          k = 0.1667 0.2887 0.0000 (  2281 PWs)   bands (ev):

  -126.2479-125.4648 -80.1457 -79.2937 -78.5454 -78.5357 -77.8701 -77.8605
    -9.5519  -7.3648  -4.8357  -4.7657  -4.2887  -3.7248  -3.6213  -2.2388
    -2.2295  -2.0355  -1.8900  -1.2509   2.4971   3.0447   3.5039   6.6570
     7.8355   8.2939

          k = 0.1667 0.2887 0.1017 (  2275 PWs)   bands (ev):

  -126.2479-125.4648 -80.1350 -79.2830 -78.5435 -78.5314 -77.8680 -77.8561
    -9.5448  -7.3598  -4.7941  -4.7509  -4.2712  -3.6807  -3.6070  -2.2369
    -2.2182  -2.0297  -1.8783  -1.2664   2.4287   3.1761   3.5336   6.6650
     7.8983   8.2464

          k = 0.1667 0.2887 0.2034 (  2281 PWs)   bands (ev):

  -126.2479-125.4648 -80.1486 -79.2965 -78.5405 -78.5315 -77.8651 -77.8565
    -9.5549  -7.3789  -4.8117  -4.7567  -4.3117  -3.7045  -3.6088  -2.2289
    -2.1983  -2.0323  -1.8755  -1.3108   2.3362   3.3255   3.6093   6.7846
     7.8101   8.1382

          k = 0.1667 0.2887-0.3051 (  2284 PWs)   bands (ev):

  -126.2479-125.4648 -80.1542 -79.3022 -78.5391 -78.5343 -77.8637 -77.8592
    -9.5557  -7.3847  -4.8388  -4.7504  -4.3113  -3.7383  -3.6253  -2.2287
    -2.1982  -2.0277  -1.8807  -1.3304   2.3020   3.3703   3.6531   6.9872
     7.5751   8.0809

          k = 0.1667 0.4811 0.0000 (  2281 PWs)   bands (ev):

  -126.2479-125.4648 -80.1411 -79.2892 -78.5555 -78.5390 -77.8799 -77.8635
    -9.4285  -7.3409  -4.8342  -4.7777  -4.0448  -3.7455  -3.6166  -2.2664
    -2.2471  -1.9736  -1.8327  -1.3489   1.8665   2.8214   3.3679   6.3946
     7.1821   8.0919

          k = 0.1667 0.4811 0.1017 (  2283 PWs)   bands (ev):

  -126.2480-125.4648 -80.1419 -79.2901 -78.5571 -78.5421 -77.8816 -77.8661
    -9.4328  -7.3531  -4.8341  -4.7622  -4.0635  -3.7576  -3.5901  -2.2823
    -2.2670  -1.9745  -1.8299  -1.3604   1.7982   2.8220   3.3730   6.6231
     7.2771   7.9807

          k = 0.1667 0.4811 0.2034 (  2280 PWs)   bands (ev):

  -126.2479-125.4648 -80.1389 -79.2870 -78.5546 -78.5405 -77.8792 -77.8643
    -9.4334  -7.3522  -4.8073  -4.7596  -4.0676  -3.7232  -3.5987  -2.2860
    -2.2470  -1.9648  -1.8277  -1.3556   1.6942   2.8282   3.3748   7.0213
     7.5276   7.8649

          k = 0.1667 0.4811-0.3051 (  2276 PWs)   bands (ev):

  -126.2479-125.4648 -80.1371 -79.2849 -78.5481 -78.5388 -77.8727 -77.8630
    -9.4342  -7.3521  -4.7850  -4.7413  -4.0788  -3.7056  -3.5871  -2.2877
    -2.2189  -1.9483  -1.8279  -1.3408   1.6502   2.8360   3.3732   7.1729
     7.5901   7.9587

          k = 0.3333 0.5774 0.0000 (  2277 PWs)   bands (ev):

  -126.2480-125.4648 -80.1347 -79.2829 -78.5478 -78.5475 -77.8724 -77.8724
    -9.3896  -7.3358  -4.8312  -4.7474  -3.9668  -3.7192  -3.5796  -2.2552
    -2.2499  -1.9156  -1.8551  -1.3617   2.0220   2.1115   3.4534   6.6224
     7.0795   7.6549

          k = 0.3333 0.5774 0.1017 (  2289 PWs)   bands (ev):

  -126.2480-125.4648 -80.1531 -79.3017 -78.5534 -78.5528 -77.8779 -77.8779
    -9.4119  -7.3721  -4.8149  -4.7705  -4.0080  -3.7522  -3.6541  -2.2924
    -2.2685  -1.9457  -1.8488  -1.3794   2.0234   2.0308   3.4005   6.8322
     7.2611   7.5078

          k = 0.3333 0.5774 0.2034 (  2289 PWs)   bands (ev):

  -126.2480-125.4649 -80.1407 -79.2888 -78.5640 -78.5636 -77.8883 -77.8883
    -9.3977  -7.3472  -4.8256  -4.7746  -3.9884  -3.7529  -3.6411  -2.3312
    -2.3140  -1.9070  -1.9048  -1.4161   1.8950   2.0558   3.3342   7.2472
     7.3108   7.7032

          k = 0.3333 0.5774-0.3051 (  2280 PWs)   bands (ev):

  -126.2480-125.4648 -80.1486 -79.2968 -78.5483 -78.5478 -77.8727 -77.8727
    -9.4118  -7.3685  -4.7845  -4.7454  -3.9932  -3.7300  -3.6223  -2.2474
    -2.2447  -1.9207  -1.8717  -1.3692   1.8389   2.0738   3.3008   7.1424
     7.5890   8.0039

          k = 0.0000-0.1925 0.1017 (  2277 PWs)   bands (ev):

  -126.2479-125.4648 -80.1309 -79.2787 -78.5386 -78.5369 -77.8630 -77.8618
    -9.6657  -7.3805  -4.7792  -4.7149  -4.4708  -3.6319  -3.5798  -2.2587
    -2.1997  -2.0326  -1.9414  -1.4267   2.6888   3.6214   4.3507   6.7999
     8.0763   8.4373

          k = 0.0000-0.1925 0.2034 (  2296 PWs)   bands (ev):

  -126.2479-125.4648 -80.1556 -79.3035 -78.5495 -78.5481 -77.8737 -77.8728
    -9.6851  -7.4280  -4.7973  -4.7658  -4.5394  -3.6845  -3.6307  -2.2687
    -2.2473  -2.0671  -2.0062  -1.5340   2.9417   3.6523   4.3579   6.4575
     7.9471   8.3648

          k = 0.0000-0.3849 0.1017 (  2273 PWs)   bands (ev):

  -126.2479-125.4648 -80.1349 -79.2827 -78.5420 -78.5347 -77.8669 -77.8596
    -9.5076  -7.3516  -4.7937  -4.7435  -4.2083  -3.6942  -3.5889  -2.2945
    -2.1822  -2.0143  -1.8341  -1.2849   2.0239   3.2675   3.7011   6.1254
     7.8095   8.5283

          k = 0.0000-0.3849 0.2034 (  2277 PWs)   bands (ev):

  -126.2479-125.4648 -80.1401 -79.2875 -78.5407 -78.5374 -77.8650 -77.8621
    -9.5110  -7.3597  -4.8015  -4.7609  -4.2312  -3.6795  -3.5913  -2.2756
    -2.1792  -2.0158  -1.8607  -1.3092   1.9154   3.4031   3.7190   6.2968
     7.8808   8.4193

          k =-0.1667-0.4811 0.1017 (  2283 PWs)   bands (ev):

  -126.2480-125.4648 -80.1419 -79.2899 -78.5570 -78.5419 -77.8816 -77.8664
    -9.4351  -7.3523  -4.8347  -4.7593  -4.0640  -3.7514  -3.5895  -2.2878
    -2.2519  -1.9770  -1.8459  -1.3647   1.8088   2.8252   3.3836   6.4189
     7.4356   8.0388

          k =-0.1667-0.4811 0.2034 (  2280 PWs)   bands (ev):

  -126.2479-125.4648 -80.1391 -79.2870 -78.5545 -78.5401 -77.8792 -77.8646
    -9.4349  -7.3511  -4.7980  -4.7571  -4.0687  -3.7353  -3.5978  -2.2849
    -2.2404  -1.9639  -1.8340  -1.3592   1.6991   2.8269   3.3829   6.7690
     7.6468   8.0094

     highest occupied level (ev):     8.5875

!    total energy              =    -837.34396232 Ry
     estimated scf accuracy    <          1.8E-09 Ry

     The total energy is the sum of the following terms:
     one-electron contribution =    -823.05031622 Ry
     hartree contribution      =     410.61096452 Ry
     xc contribution           =     -81.99600944 Ry
     ewald contribution        =    -342.90860119 Ry

     convergence has been achieved in  12 iterations

     Writing all to output data dir ./SCRATCH/zns_w.save/

     init_run     :      1.02s CPU      1.10s WALL (       1 calls)
     electrons    :     49.64s CPU     50.26s WALL (       1 calls)

     Called by init_run:
     wfcinit      :      0.98s CPU      1.02s WALL (       1 calls)
     potinit      :      0.00s CPU      0.04s WALL (       1 calls)
     hinit0       :      0.02s CPU      0.03s WALL (       1 calls)

     Called by electrons:
     c_bands      :     45.92s CPU     46.50s WALL (      12 calls)
     sum_band     :      3.52s CPU      3.57s WALL (      12 calls)
     v_of_rho     :      0.17s CPU      0.17s WALL (      13 calls)
     mix_rho      :      0.02s CPU      0.02s WALL (      12 calls)

     Called by c_bands:
     init_us_2    :      0.47s CPU      0.45s WALL (     850 calls)
     init_us_2:cp :      0.45s CPU      0.45s WALL (     850 calls)
     cegterg      :     44.77s CPU     45.37s WALL (     408 calls)

     Called by *egterg:
     cdiaghg      :      1.69s CPU      1.46s WALL (    2482 calls)
     h_psi        :     29.88s CPU     30.60s WALL (    2516 calls)
     g_psi        :      0.17s CPU      0.16s WALL (    2074 calls)

     Called by h_psi:
     h_psi:calbec :      4.72s CPU      4.47s WALL (    2516 calls)
     vloc_psi     :     21.86s CPU     22.70s WALL (    2516 calls)
     add_vuspsi   :      3.11s CPU      3.23s WALL (    2516 calls)

     General routines
     calbec       :      4.72s CPU      4.46s WALL (    2516 calls)
     fft          :      0.08s CPU      0.06s WALL (     129 calls)
     ffts         :      0.00s CPU      0.01s WALL (      12 calls)
     fftw         :     22.53s CPU     23.28s WALL (   83730 calls)


     PWSCF        :     50.67s CPU     51.41s WALL


   This run was terminated on:  12:37:34   9Jun2024            

=------------------------------------------------------------------------------=
   JOB DONE.
=------------------------------------------------------------------------------=
