
     Program PWSCF v.7.2 starts on  9Jun2024 at 12:48:15 

     This program is part of the open-source Quantum ESPRESSO suite
     for quantum simulation of materials; please cite
         "P. Giannozzi et al., J. Phys.:Condens. Matter 21 395502 (2009);
         "P. Giannozzi et al., J. Phys.:Condens. Matter 29 465901 (2017);
         "P. Giannozzi et al., J. Chem. Phys. 152 154105 (2020);
          URL http://www.quantum-espresso.org", 
     in publications or presentations arising from this work. More details at
     http://www.quantum-espresso.org/quote

     Serial version
     8530 MiB available memory on the printing compute node when the environment starts

     Waiting for input...
     Reading input from standard input

     Current dimensions of program PWSCF are:
     Max number of different atomic species (ntypx) = 10
     Max number of k-points (npk) =  40000
     Max angular momentum in pseudopotentials (lmaxx) =  4


     G-vector sticks info
     --------------------
     sticks:   dense  smooth     PW     G-vecs:    dense   smooth      PW
     Sum         595     595    187                19399    19399    3189

     Using Slab Decomposition



     bravais-lattice index     =            4
     lattice parameter (alat)  =       7.3631  a.u.
     unit-cell volume          =     566.5376 (a.u.)^3
     number of atoms/cell      =            4
     number of atomic types    =            2
     number of electrons       =        52.00
     number of Kohn-Sham states=           26
     kinetic-energy cutoff     =      40.0000  Ry
     charge density cutoff     =     160.0000  Ry
     scf convergence threshold =      1.0E-08
     mixing beta               =       0.7000
     number of iterations used =            8  plain     mixing
     Exchange-correlation= PBE
                           (   1   4   3   4   0   0   0)

     celldm(1)=   7.363128  celldm(2)=   0.000000  celldm(3)=   1.638743
     celldm(4)=   0.000000  celldm(5)=   0.000000  celldm(6)=   0.000000

     crystal axes: (cart. coord. in units of alat)
               a(1) = (   1.000000   0.000000   0.000000 )  
               a(2) = (  -0.500000   0.866025   0.000000 )  
               a(3) = (   0.000000   0.000000   1.638743 )  

     reciprocal axes: (cart. coord. in units 2 pi/alat)
               b(1) = (  1.000000  0.577350 -0.000000 )  
               b(2) = (  0.000000  1.154701  0.000000 )  
               b(3) = (  0.000000 -0.000000  0.610224 )  


     PseudoPot. # 1 for Zn read from file:
     /home/paolo/project_labqsm/pseudopotentials/Zn_ONCV_PBE-1.2.upf
     MD5 check sum: 732f41c0cd6489a4b50a33b4ec99a2d3
     Pseudo is Norm-conserving, Zval = 20.0
     Generated using ONCVPSP code by D. R. Hamann
     Using radial grid of  602 points,  6 beta functions with: 
                l(1) =   0
                l(2) =   0
                l(3) =   1
                l(4) =   1
                l(5) =   2
                l(6) =   2

     PseudoPot. # 2 for S  read from file:
     /home/paolo/project_labqsm/pseudopotentials/S_ONCV_PBE-1.2.upf
     MD5 check sum: f9d020296ee6110346977bfd66d424f6
     Pseudo is Norm-conserving, Zval =  6.0
     Generated using ONCVPSP code by D. R. Hamann
     Using radial grid of  602 points,  4 beta functions with: 
                l(1) =   0
                l(2) =   0
                l(3) =   1
                l(4) =   1

     atomic species   valence    mass     pseudopotential
        Zn            20.00    65.38000     Zn( 1.00)
        S              6.00    32.06000     S ( 1.00)

      6 Sym. Ops. (no inversion) found



   Cartesian axes

     site n.     atom                  positions (alat units)
         1           Zn  tau(   1) = (   0.0000000   0.0000000   0.0000000  )
         2           S   tau(   2) = (   0.0000000   0.0000000   0.3723729  )
         3           Zn  tau(   3) = (   0.0000000   0.5773503   0.5000000  )
         4           S   tau(   4) = (   0.0000000   0.5773503   0.8723729  )

     number of k points=    65
                       cart. coord. in units 2pi/alat
        k(    1) = (   0.0000000   0.0000000   0.0000000), wk =   0.0039062
        k(    2) = (   0.0000000   0.0000000   0.0762780), wk =   0.0078125
        k(    3) = (   0.0000000   0.0000000   0.1525559), wk =   0.0078125
        k(    4) = (   0.0000000   0.0000000   0.2288339), wk =   0.0078125
        k(    5) = (   0.0000000   0.0000000  -0.3051118), wk =   0.0039062
        k(    6) = (   0.0000000   0.1443376   0.0000000), wk =   0.0234375
        k(    7) = (   0.0000000   0.1443376   0.0762780), wk =   0.0234375
        k(    8) = (   0.0000000   0.1443376   0.1525559), wk =   0.0234375
        k(    9) = (   0.0000000   0.1443376   0.2288339), wk =   0.0234375
        k(   10) = (   0.0000000   0.1443376  -0.3051118), wk =   0.0234375
        k(   11) = (   0.0000000   0.2886751   0.0000000), wk =   0.0234375
        k(   12) = (   0.0000000   0.2886751   0.0762780), wk =   0.0234375
        k(   13) = (   0.0000000   0.2886751   0.1525559), wk =   0.0234375
        k(   14) = (   0.0000000   0.2886751   0.2288339), wk =   0.0234375
        k(   15) = (   0.0000000   0.2886751  -0.3051118), wk =   0.0234375
        k(   16) = (   0.0000000   0.4330127   0.0000000), wk =   0.0234375
        k(   17) = (   0.0000000   0.4330127   0.0762780), wk =   0.0234375
        k(   18) = (   0.0000000   0.4330127   0.1525559), wk =   0.0234375
        k(   19) = (   0.0000000   0.4330127   0.2288339), wk =   0.0234375
        k(   20) = (   0.0000000   0.4330127  -0.3051118), wk =   0.0234375
        k(   21) = (   0.0000000  -0.5773503   0.0000000), wk =   0.0117188
        k(   22) = (   0.0000000  -0.5773503   0.0762780), wk =   0.0234375
        k(   23) = (   0.0000000  -0.5773503   0.1525559), wk =   0.0234375
        k(   24) = (   0.0000000  -0.5773503   0.2288339), wk =   0.0234375
        k(   25) = (   0.0000000  -0.5773503  -0.3051118), wk =   0.0117188
        k(   26) = (   0.1250000   0.2165064   0.0000000), wk =   0.0234375
        k(   27) = (   0.1250000   0.2165064   0.0762780), wk =   0.0468750
        k(   28) = (   0.1250000   0.2165064   0.1525559), wk =   0.0468750
        k(   29) = (   0.1250000   0.2165064   0.2288339), wk =   0.0468750
        k(   30) = (   0.1250000   0.2165064  -0.3051118), wk =   0.0234375
        k(   31) = (   0.1250000   0.3608439   0.0000000), wk =   0.0468750
        k(   32) = (   0.1250000   0.3608439   0.0762780), wk =   0.0468750
        k(   33) = (   0.1250000   0.3608439   0.1525559), wk =   0.0468750
        k(   34) = (   0.1250000   0.3608439   0.2288339), wk =   0.0468750
        k(   35) = (   0.1250000   0.3608439  -0.3051118), wk =   0.0468750
        k(   36) = (   0.1250000   0.5051815   0.0000000), wk =   0.0468750
        k(   37) = (   0.1250000   0.5051815   0.0762780), wk =   0.0468750
        k(   38) = (   0.1250000   0.5051815   0.1525559), wk =   0.0468750
        k(   39) = (   0.1250000   0.5051815   0.2288339), wk =   0.0468750
        k(   40) = (   0.1250000   0.5051815  -0.3051118), wk =   0.0468750
        k(   41) = (   0.2500000   0.4330127   0.0000000), wk =   0.0234375
        k(   42) = (   0.2500000   0.4330127   0.0762780), wk =   0.0468750
        k(   43) = (   0.2500000   0.4330127   0.1525559), wk =   0.0468750
        k(   44) = (   0.2500000   0.4330127   0.2288339), wk =   0.0468750
        k(   45) = (   0.2500000   0.4330127  -0.3051118), wk =   0.0234375
        k(   46) = (   0.2500000   0.5773503   0.0000000), wk =   0.0234375
        k(   47) = (   0.2500000   0.5773503   0.0762780), wk =   0.0468750
        k(   48) = (   0.2500000   0.5773503   0.1525559), wk =   0.0468750
        k(   49) = (   0.2500000   0.5773503   0.2288339), wk =   0.0468750
        k(   50) = (   0.2500000   0.5773503  -0.3051118), wk =   0.0234375
        k(   51) = (   0.0000000  -0.1443376   0.0762780), wk =   0.0234375
        k(   52) = (   0.0000000  -0.1443376   0.1525559), wk =   0.0234375
        k(   53) = (   0.0000000  -0.1443376   0.2288339), wk =   0.0234375
        k(   54) = (   0.0000000  -0.2886751   0.0762780), wk =   0.0234375
        k(   55) = (   0.0000000  -0.2886751   0.1525559), wk =   0.0234375
        k(   56) = (   0.0000000  -0.2886751   0.2288339), wk =   0.0234375
        k(   57) = (   0.0000000  -0.4330127   0.0762780), wk =   0.0234375
        k(   58) = (   0.0000000  -0.4330127   0.1525559), wk =   0.0234375
        k(   59) = (   0.0000000  -0.4330127   0.2288339), wk =   0.0234375
        k(   60) = (  -0.1250000  -0.3608439   0.0762780), wk =   0.0468750
        k(   61) = (  -0.1250000  -0.3608439   0.1525559), wk =   0.0468750
        k(   62) = (  -0.1250000  -0.3608439   0.2288339), wk =   0.0468750
        k(   63) = (  -0.1250000  -0.5051815   0.0762780), wk =   0.0468750
        k(   64) = (  -0.1250000  -0.5051815   0.1525559), wk =   0.0468750
        k(   65) = (  -0.1250000  -0.5051815   0.2288339), wk =   0.0468750

     Dense  grid:    19399 G-vectors     FFT dimensions: (  30,  30,  50)

     Estimated max dynamical RAM per process >      83.05 MB

     Initial potential from superposition of free atoms

     starting charge      51.9339, renormalised to      52.0000
     Starting wfcs are random

     total cpu time spent up to now is        2.4 secs

     Self-consistent Calculation

     iteration #  1     ecut=    40.00 Ry     beta= 0.70
     Davidson diagonalization with overlap
     ethr =  1.00E-02,  avg # of iterations = 14.4

     total cpu time spent up to now is       31.5 secs

     total energy              =    -836.32607439 Ry
     estimated scf accuracy    <       2.34096109 Ry

     iteration #  2     ecut=    40.00 Ry     beta= 0.70
     Davidson diagonalization with overlap
     ethr =  4.50E-03,  avg # of iterations =  6.3

     total cpu time spent up to now is       40.8 secs

     total energy              =    -835.75580801 Ry
     estimated scf accuracy    <       8.96263536 Ry

     iteration #  3     ecut=    40.00 Ry     beta= 0.70
     Davidson diagonalization with overlap
     ethr =  4.50E-03,  avg # of iterations =  5.6

     total cpu time spent up to now is       48.7 secs

     total energy              =    -837.51228749 Ry
     estimated scf accuracy    <       0.83197988 Ry

     iteration #  4     ecut=    40.00 Ry     beta= 0.70
     Davidson diagonalization with overlap
     ethr =  1.60E-03,  avg # of iterations =  2.0

     total cpu time spent up to now is       54.6 secs

     total energy              =    -837.55666000 Ry
     estimated scf accuracy    <       0.14956911 Ry

     iteration #  5     ecut=    40.00 Ry     beta= 0.70
     Davidson diagonalization with overlap
     ethr =  2.88E-04,  avg # of iterations =  4.0

     total cpu time spent up to now is       60.7 secs

     total energy              =    -837.56879145 Ry
     estimated scf accuracy    <       0.01673412 Ry

     iteration #  6     ecut=    40.00 Ry     beta= 0.70
     Davidson diagonalization with overlap
     ethr =  3.22E-05,  avg # of iterations =  4.7

     total cpu time spent up to now is       67.1 secs

     total energy              =    -837.57179056 Ry
     estimated scf accuracy    <       0.00188854 Ry

     iteration #  7     ecut=    40.00 Ry     beta= 0.70
     Davidson diagonalization with overlap
     ethr =  3.63E-06,  avg # of iterations =  4.6

     total cpu time spent up to now is       74.4 secs

     total energy              =    -837.57232156 Ry
     estimated scf accuracy    <       0.00061404 Ry

     iteration #  8     ecut=    40.00 Ry     beta= 0.70
     Davidson diagonalization with overlap
     ethr =  1.18E-06,  avg # of iterations =  3.2

     total cpu time spent up to now is       80.5 secs

     total energy              =    -837.57242470 Ry
     estimated scf accuracy    <       0.00001228 Ry

     iteration #  9     ecut=    40.00 Ry     beta= 0.70
     Davidson diagonalization with overlap
     ethr =  2.36E-08,  avg # of iterations =  5.1

     total cpu time spent up to now is       88.4 secs

     total energy              =    -837.57242975 Ry
     estimated scf accuracy    <       0.00000448 Ry

     iteration # 10     ecut=    40.00 Ry     beta= 0.70
     Davidson diagonalization with overlap
     ethr =  8.62E-09,  avg # of iterations =  3.2

     total cpu time spent up to now is       94.4 secs

     total energy              =    -837.57243030 Ry
     estimated scf accuracy    <       0.00000017 Ry

     iteration # 11     ecut=    40.00 Ry     beta= 0.70
     Davidson diagonalization with overlap
     ethr =  3.26E-10,  avg # of iterations =  5.2

     total cpu time spent up to now is      102.5 secs

     total energy              =    -837.57243037 Ry
     estimated scf accuracy    <       0.00000015 Ry

     iteration # 12     ecut=    40.00 Ry     beta= 0.70
     Davidson diagonalization with overlap
     ethr =  2.80E-10,  avg # of iterations =  3.1

     total cpu time spent up to now is      108.7 secs

     End of self-consistent calculation

          k = 0.0000 0.0000 0.0000 (  2431 PWs)   bands (ev):

  -126.7520-125.8510 -80.5216 -79.5558 -79.0792 -79.0792 -78.2727 -78.2727
   -10.1695  -7.7793  -5.0464  -5.0464  -4.9543  -3.8910  -3.8910  -2.8096
    -2.8096  -2.4371  -2.4371  -2.0638   1.7399   4.0682   4.0682   6.2269
     7.4984   7.4984

          k = 0.0000 0.0000 0.0763 (  2425 PWs)   bands (ev):

  -126.7520-125.8510 -80.5093 -79.5432 -79.0818 -79.0818 -78.2753 -78.2753
   -10.1650  -7.7727  -5.0207  -5.0207  -4.9547  -3.8423  -3.8423  -2.8241
    -2.8241  -2.4444  -2.4444  -2.0748   1.8363   4.0697   4.0697   6.0013
     7.4910   7.4910

          k = 0.0000 0.0000 0.1526 (  2436 PWs)   bands (ev):

  -126.7521-125.8511 -80.5075 -79.5417 -79.1021 -79.1021 -78.2954 -78.2954
   -10.1609  -7.7751  -5.0270  -5.0270  -4.9593  -3.8817  -3.8817  -2.9082
    -2.9082  -2.5279  -2.5279  -2.1234   2.0798   4.0577   4.0577   5.5335
     7.4669   7.4669

          k = 0.0000 0.0000 0.2288 (  2442 PWs)   bands (ev):

  -126.7521-125.8511 -80.5309 -79.5651 -79.0989 -79.0989 -78.2924 -78.2924
   -10.1769  -7.8283  -5.0478  -5.0478  -4.9960  -3.8972  -3.8972  -2.8854
    -2.8854  -2.5115  -2.5115  -2.2363   2.3629   4.0650   4.0650   5.0682
     7.4432   7.4432

          k = 0.0000 0.0000-0.3051 (  2460 PWs)   bands (ev):

  -126.7521-125.8511 -80.5522 -79.5868 -79.1079 -79.1079 -78.3016 -78.3016
   -10.1864  -7.8459  -5.0943  -5.0943  -5.0426  -3.9626  -3.9626  -2.9129
    -2.9129  -2.5415  -2.5415  -2.2697   2.4954   4.0490   4.0490   4.8680
     7.4224   7.4224

          k = 0.0000 0.1443 0.0000 (  2427 PWs)   bands (ev):

  -126.7520-125.8510 -80.5191 -79.5532 -79.0799 -79.0775 -78.2734 -78.2711
   -10.1305  -7.7659  -5.0764  -5.0345  -4.8976  -3.8920  -3.8583  -2.8118
    -2.7984  -2.4511  -2.4233  -1.9618   1.8465   3.3358   3.8401   6.4945
     6.9246   7.5965

          k = 0.0000 0.1443 0.0763 (  2435 PWs)   bands (ev):

  -126.7520-125.8510 -80.5226 -79.5568 -79.0896 -79.0860 -78.2831 -78.2796
   -10.1302  -7.7716  -5.0881  -5.0530  -4.8933  -3.9194  -3.8844  -2.8471
    -2.8383  -2.4829  -2.4630  -1.9957   1.9254   3.3189   3.8405   6.3607
     6.9254   7.5717

          k = 0.0000 0.1443 0.1526 (  2427 PWs)   bands (ev):

  -126.7520-125.8510 -80.5155 -79.5499 -79.0915 -79.0762 -78.2850 -78.2698
   -10.1220  -7.7697  -5.0580  -5.0415  -4.8715  -3.8837  -3.8802  -2.8327
    -2.8290  -2.4788  -2.4406  -2.0353   2.1337   3.3113   3.8543   5.9606
     7.0558   7.5437

          k = 0.0000 0.1443 0.2288 (  2435 PWs)   bands (ev):

  -126.7520-125.8510 -80.5297 -79.5641 -79.0923 -79.0821 -78.2858 -78.2751
   -10.1311  -7.8019  -5.0884  -5.0615  -4.8931  -3.8990  -3.8911  -2.8496
    -2.8318  -2.4956  -2.4333  -2.1130   2.3721   3.2735   3.8622   5.5964
     7.1188   7.5102

          k = 0.0000 0.1443-0.3051 (  2436 PWs)   bands (ev):

  -126.7520-125.8510 -80.5310 -79.5654 -79.0950 -79.0822 -78.2884 -78.2756
   -10.1329  -7.8120  -5.0856  -5.0493  -4.8959  -3.9010  -3.8990  -2.8846
    -2.7981  -2.5287  -2.4186  -2.1443   2.4855   3.2609   3.8638   5.4265
     7.1620   7.5058

          k = 0.0000 0.2887 0.0000 (  2415 PWs)   bands (ev):

  -126.7520-125.8510 -80.5100 -79.5441 -79.0759 -79.0659 -78.2695 -78.2595
   -10.0228  -7.7353  -5.0897  -5.0186  -4.7019  -3.9137  -3.8059  -2.8521
    -2.6994  -2.4920  -2.2684  -1.8330   1.9793   2.3458   3.4024   5.9184
     6.9531   7.7295

          k = 0.0000 0.2887 0.0763 (  2428 PWs)   bands (ev):

  -126.7520-125.8510 -80.5218 -79.5554 -79.0848 -79.0783 -78.2781 -78.2719
   -10.0285  -7.7439  -5.1451  -5.0553  -4.7238  -3.9486  -3.8527  -2.8852
    -2.7398  -2.5131  -2.3063  -1.8535   1.9527   2.3870   3.3960   6.0781
     6.7734   7.6919

          k = 0.0000 0.2887 0.1526 (  2424 PWs)   bands (ev):

  -126.7520-125.8510 -80.5259 -79.5600 -79.0775 -79.0731 -78.2705 -78.2669
   -10.0257  -7.7511  -5.1427  -5.0400  -4.7154  -3.9591  -3.8675  -2.8349
    -2.7445  -2.4782  -2.2982  -1.8679   1.9140   2.5258   3.4056   6.1714
     6.6487   7.6438

          k = 0.0000 0.2887 0.2288 (  2421 PWs)   bands (ev):

  -126.7520-125.8510 -80.5222 -79.5565 -79.0795 -79.0709 -78.2729 -78.2637
   -10.0258  -7.7608  -5.0993  -5.0343  -4.7169  -3.9251  -3.8640  -2.8531
    -2.7490  -2.4881  -2.2746  -1.9118   1.8952   2.6626   3.4137   6.1226
     6.6255   7.5936

          k = 0.0000 0.2887-0.3051 (  2420 PWs)   bands (ev):

  -126.7520-125.8510 -80.5230 -79.5574 -79.0831 -79.0640 -78.2766 -78.2574
   -10.0261  -7.7692  -5.0755  -5.0519  -4.7035  -3.9028  -3.8999  -2.8426
    -2.7268  -2.4766  -2.2771  -1.9351   1.8905   2.7344   3.4090   5.9039
     6.7984   7.5785

          k = 0.0000 0.4330 0.0000 (  2417 PWs)   bands (ev):

  -126.7520-125.8510 -80.5177 -79.5516 -79.0776 -79.0701 -78.2706 -78.2634
    -9.9180  -7.7137  -5.1396  -5.0789  -4.5223  -3.9677  -3.8370  -2.8295
    -2.7372  -2.3898  -2.2369  -1.8157   1.3387   2.5167   2.9958   5.5337
     6.4648   7.7533

          k = 0.0000 0.4330 0.0763 (  2418 PWs)   bands (ev):

  -126.7520-125.8510 -80.5200 -79.5542 -79.0792 -79.0691 -78.2722 -78.2619
    -9.9165  -7.7126  -5.1555  -5.0793  -4.5115  -3.9773  -3.8609  -2.8294
    -2.7429  -2.3868  -2.2215  -1.8177   1.2976   2.5318   2.9964   5.7660
     6.3699   7.7183

          k = 0.0000 0.4330 0.1526 (  2417 PWs)   bands (ev):

  -126.7520-125.8510 -80.5263 -79.5603 -79.0752 -79.0656 -78.2684 -78.2586
    -9.9271  -7.7306  -5.1408  -5.0390  -4.5411  -3.9915  -3.8450  -2.8325
    -2.6998  -2.4035  -2.1928  -1.8435   1.2162   2.5779   3.0122   6.0215
     6.4157   7.6599

          k = 0.0000 0.4330 0.2288 (  2422 PWs)   bands (ev):

  -126.7520-125.8510 -80.5299 -79.5644 -79.0857 -79.0647 -78.2789 -78.2581
    -9.9267  -7.7379  -5.1252  -5.0679  -4.5367  -3.9883  -3.9111  -2.8711
    -2.6860  -2.4148  -2.1984  -1.8789   1.1492   2.6234   3.0102   6.2365
     6.4580   7.5850

          k = 0.0000 0.4330-0.3051 (  2414 PWs)   bands (ev):

  -126.7520-125.8510 -80.5218 -79.5564 -79.0798 -79.0604 -78.2733 -78.2539
    -9.9183  -7.7250  -5.1094  -5.0548  -4.5076  -3.9677  -3.9059  -2.8539
    -2.6673  -2.3910  -2.1906  -1.8661   1.1302   2.6538   3.0212   6.0637
     6.6875   7.5668

          k = 0.0000-0.5774 0.0000 (  2412 PWs)   bands (ev):

  -126.7520-125.8510 -80.5239 -79.5574 -79.0807 -79.0561 -78.2734 -78.2499
    -9.8781  -7.7106  -5.1552  -5.0729  -4.4471  -4.0186  -3.8059  -2.8358
    -2.6674  -2.2943  -2.1519  -1.9318   1.0960   2.6344   2.8505   5.6869
     5.8936   7.7537

          k = 0.0000-0.5774 0.0763 (  2414 PWs)   bands (ev):

  -126.7520-125.8510 -80.5212 -79.5555 -79.0830 -79.0614 -78.2761 -78.2547
    -9.8794  -7.7160  -5.1531  -5.0490  -4.4446  -3.9933  -3.8333  -2.8829
    -2.6626  -2.3075  -2.1597  -1.9491   1.0681   2.6313   2.8491   5.6560
     6.0865   7.7286

          k = 0.0000-0.5774 0.1526 (  2420 PWs)   bands (ev):

  -126.7521-125.8510 -80.5234 -79.5580 -79.0914 -79.0677 -78.2845 -78.2610
    -9.8772  -7.7173  -5.1527  -5.0603  -4.4546  -3.9904  -3.8893  -2.8940
    -2.7083  -2.2990  -2.2145  -1.9505   0.9893   2.6181   2.8507   5.7647
     6.3820   7.6498

          k = 0.0000-0.5774 0.2288 (  2420 PWs)   bands (ev):

  -126.7521-125.8510 -80.5306 -79.5657 -79.0864 -79.0633 -78.2795 -78.2573
    -9.8827  -7.7306  -5.1400  -5.0770  -4.4566  -3.9898  -3.9127  -2.8263
    -2.7288  -2.3147  -2.2184  -1.8995   0.9201   2.5977   2.8586   6.0315
     6.5166   7.5747

          k = 0.0000-0.5774-0.3051 (  2424 PWs)   bands (ev):

  -126.7521-125.8510 -80.5299 -79.5653 -79.1013 -79.0603 -78.2944 -78.2548
    -9.8815  -7.7279  -5.1307  -5.0988  -4.4594  -3.9763  -3.9757  -2.8629
    -2.7364  -2.3064  -2.2326  -1.9250   0.8994   2.5855   2.8505   6.2957
     6.4017   7.5416

          k = 0.1250 0.2165 0.0000 (  2437 PWs)   bands (ev):

  -126.7521-125.8510 -80.5144 -79.5486 -79.1011 -79.0896 -78.2944 -78.2829
   -10.0508  -7.7395  -5.1122  -5.0732  -4.7561  -3.9447  -3.9031  -2.9049
    -2.8423  -2.5505  -2.4148  -1.8615   2.0118   2.5796   3.3579   6.2161
     6.9427   7.6106

          k = 0.1250 0.2165 0.0763 (  2440 PWs)   bands (ev):

  -126.7521-125.8510 -80.5213 -79.5555 -79.0983 -79.0932 -78.2916 -78.2862
   -10.0610  -7.7586  -5.1305  -5.0532  -4.7900  -3.9443  -3.8804  -2.9034
    -2.8571  -2.5482  -2.4202  -1.8940   2.0382   2.6023   3.3672   6.1359
     6.9824   7.5938

          k = 0.1250 0.2165 0.1526 (  2424 PWs)   bands (ev):

  -126.7520-125.8510 -80.5162 -79.5504 -79.0840 -79.0757 -78.2774 -78.2689
   -10.0535  -7.7539  -5.0994  -5.0332  -4.7661  -3.9205  -3.8520  -2.8437
    -2.7848  -2.4967  -2.3489  -1.9027   2.1068   2.6736   3.3972   6.0130
     7.0148   7.5490

          k = 0.1250 0.2165 0.2288 (  2425 PWs)   bands (ev):

  -126.7520-125.8510 -80.5282 -79.5627 -79.0783 -79.0734 -78.2716 -78.2665
   -10.0601  -7.7781  -5.0994  -5.0434  -4.7804  -3.9244  -3.8758  -2.8348
    -2.7433  -2.4963  -2.3187  -1.9591   2.1598   2.7431   3.4109   5.9239
     6.9522   7.4931

          k = 0.1250 0.2165-0.3051 (  2422 PWs)   bands (ev):

  -126.7520-125.8510 -80.5293 -79.5638 -79.0726 -79.0706 -78.2659 -78.2637
   -10.0611  -7.7840  -5.1003  -5.0323  -4.7818  -3.9229  -3.8530  -2.7981
    -2.7463  -2.4720  -2.3170  -1.9696   2.1870   2.7741   3.4204   5.8972
     6.9114   7.4706

          k = 0.1250 0.3608 0.0000 (  2409 PWs)   bands (ev):

  -126.7520-125.8510 -80.5141 -79.5483 -79.0708 -79.0586 -78.2645 -78.2520
    -9.9494  -7.7209  -5.0850  -5.0652  -4.5589  -3.9005  -3.8566  -2.8179
    -2.6803  -2.4374  -2.1879  -1.7780   1.6799   2.4194   2.8123   5.7683
     6.8117   7.5145

          k = 0.1250 0.3608 0.0763 (  2420 PWs)   bands (ev):

  -126.7520-125.8510 -80.5188 -79.5530 -79.0815 -79.0725 -78.2747 -78.2655
    -9.9545  -7.7290  -5.1196  -5.0554  -4.5931  -3.9377  -3.8699  -2.8572
    -2.7331  -2.4689  -2.2447  -1.8019   1.6268   2.4446   2.8288   5.8921
     6.7745   7.4632

          k = 0.1250 0.3608 0.1526 (  2430 PWs)   bands (ev):

  -126.7521-125.8510 -80.5305 -79.5648 -79.0875 -79.0802 -78.2805 -78.2731
    -9.9621  -7.7453  -5.1560  -5.0725  -4.6096  -4.0010  -3.8813  -2.8814
    -2.7545  -2.4865  -2.2565  -1.8451   1.5309   2.5193   2.8622   6.0509
     6.8093   7.3674

          k = 0.1250 0.3608 0.2288 (  2429 PWs)   bands (ev):

  -126.7521-125.8510 -80.5281 -79.5626 -79.0858 -79.0823 -78.2782 -78.2755
    -9.9583  -7.7455  -5.1441  -5.0722  -4.6048  -4.0009  -3.8776  -2.8805
    -2.7615  -2.4771  -2.2565  -1.8610   1.4652   2.5857   2.8968   6.2579
     6.7558   7.3084

          k = 0.1250 0.3608-0.3051 (  2422 PWs)   bands (ev):

  -126.7521-125.8510 -80.5221 -79.5565 -79.0806 -79.0773 -78.2736 -78.2704
    -9.9555  -7.7499  -5.1128  -5.0424  -4.5890  -3.9717  -3.8527  -2.8628
    -2.7382  -2.4762  -2.2511  -1.8683   1.4504   2.6240   2.9055   6.2332
     6.8181   7.3062

          k = 0.1250 0.5052 0.0000 (  2417 PWs)   bands (ev):

  -126.7521-125.8510 -80.5252 -79.5593 -79.0830 -79.0662 -78.2763 -78.2598
    -9.8854  -7.7220  -5.1521  -5.0736  -4.4480  -3.9988  -3.8365  -2.8469
    -2.7148  -2.3721  -2.1805  -1.8650   1.2216   2.4788   2.6446   5.6760
     6.2547   7.4728

          k = 0.1250 0.5052 0.0763 (  2410 PWs)   bands (ev):

  -126.7520-125.8510 -80.5158 -79.5502 -79.0801 -79.0617 -78.2735 -78.2554
    -9.8719  -7.7029  -5.1390  -5.0524  -4.4176  -3.9823  -3.8490  -2.8370
    -2.7001  -2.3448  -2.1710  -1.8514   1.1898   2.4743   2.6578   5.8413
     6.2707   7.4180

          k = 0.1250 0.5052 0.1526 (  2415 PWs)   bands (ev):

  -126.7520-125.8510 -80.5273 -79.5616 -79.0847 -79.0559 -78.2782 -78.2499
    -9.8799  -7.7150  -5.1256  -5.0946  -4.4409  -3.9835  -3.8992  -2.8316
    -2.6906  -2.3467  -2.1664  -1.8513   1.1155   2.4639   2.6594   6.0575
     6.4759   7.3009

          k = 0.1250 0.5052 0.2288 (  2412 PWs)   bands (ev):

  -126.7520-125.8510 -80.5222 -79.5570 -79.0797 -79.0587 -78.2731 -78.2527
    -9.8776  -7.7173  -5.1217  -5.0462  -4.4381  -3.9861  -3.8720  -2.8239
    -2.6905  -2.3525  -2.1703  -1.8506   1.0479   2.4755   2.6541   6.3178
     6.6208   7.2638

          k = 0.1250 0.5052-0.3051 (  2418 PWs)   bands (ev):

  -126.7521-125.8510 -80.5270 -79.5617 -79.0894 -79.0594 -78.2827 -78.2533
    -9.8792  -7.7208  -5.1389  -5.0760  -4.4389  -3.9924  -3.9077  -2.8396
    -2.7117  -2.3600  -2.1899  -1.8571   1.0250   2.4762   2.6420   6.3529
     6.6835   7.2981

          k = 0.2500 0.4330 0.0000 (  2417 PWs)   bands (ev):

  -126.7521-125.8510 -80.5237 -79.5583 -79.0844 -79.0688 -78.2774 -78.2620
    -9.8776  -7.7136  -5.1322  -5.0976  -4.4451  -3.9846  -3.8915  -2.8123
    -2.7468  -2.4094  -2.1973  -1.7919   1.4494   2.0518   2.6417   5.7577
     6.5519   7.1715

          k = 0.2500 0.4330 0.0763 (  2419 PWs)   bands (ev):

  -126.7521-125.8510 -80.5240 -79.5584 -79.0882 -79.0685 -78.2811 -78.2617
    -9.8802  -7.7153  -5.1311  -5.1067  -4.4536  -3.9737  -3.8934  -2.8415
    -2.7408  -2.4138  -2.1877  -1.8082   1.4163   2.0519   2.6505   5.8317
     6.6369   7.1170

          k = 0.2500 0.4330 0.1526 (  2417 PWs)   bands (ev):

  -126.7521-125.8510 -80.5233 -79.5577 -79.0781 -79.0731 -78.2709 -78.2662
    -9.8841  -7.7243  -5.1267  -5.0683  -4.4649  -3.9663  -3.8572  -2.8540
    -2.7220  -2.4198  -2.1702  -1.8166   1.3371   2.0659   2.6625   6.0517
     6.7909   7.0498

          k = 0.2500 0.4330 0.2288 (  2421 PWs)   bands (ev):

  -126.7521-125.8510 -80.5271 -79.5619 -79.0773 -79.0766 -78.2705 -78.2693
    -9.8835  -7.7247  -5.1481  -5.0661  -4.4645  -4.0056  -3.8688  -2.8571
    -2.7261  -2.4182  -2.1651  -1.8266   1.2555   2.0751   2.6633   6.3600
     6.7859   7.0981

          k = 0.2500 0.4330-0.3051 (  2424 PWs)   bands (ev):

  -126.7521-125.8510 -80.5280 -79.5626 -79.0848 -79.0737 -78.2772 -78.2675
    -9.8857  -7.7278  -5.1427  -5.0655  -4.4628  -4.0048  -3.8810  -2.8608
    -2.7513  -2.4227  -2.1665  -1.8445   1.2276   2.0803   2.6610   6.5409
     6.7639   7.0981

          k = 0.2500 0.5774 0.0000 (  2422 PWs)   bands (ev):

  -126.7521-125.8511 -80.5323 -79.5669 -79.0834 -79.0781 -78.2765 -78.2719
    -9.8446  -7.7030  -5.1847  -5.1313  -4.3742  -4.0377  -3.9301  -2.8197
    -2.7576  -2.3481  -2.2213  -1.8033   1.3414   1.8050   2.7048   5.8472
     6.3157   7.0272

          k = 0.2500 0.5774 0.0763 (  2410 PWs)   bands (ev):

  -126.7520-125.8510 -80.5216 -79.5560 -79.0732 -79.0670 -78.2662 -78.2608
    -9.8393  -7.6937  -5.1482  -5.1020  -4.3605  -3.9980  -3.8725  -2.7975
    -2.7112  -2.3254  -2.1837  -1.7737   1.3225   1.8149   2.6969   5.9476
     6.4181   6.9700

          k = 0.2500 0.5774 0.1526 (  2410 PWs)   bands (ev):

  -126.7520-125.8510 -80.5277 -79.5623 -79.0734 -79.0577 -78.2666 -78.2515
    -9.8482  -7.7103  -5.1337  -5.0870  -4.3804  -3.9757  -3.8781  -2.7846
    -2.7038  -2.3448  -2.1501  -1.7620   1.2623   1.8147   2.6536   6.1963
     6.6312   6.8757

          k = 0.2500 0.5774 0.2288 (  2404 PWs)   bands (ev):

  -126.7520-125.8510 -80.5163 -79.5513 -79.0727 -79.0526 -78.2663 -78.2467
    -9.8441  -7.7027  -5.0973  -5.0536  -4.3605  -3.9498  -3.8556  -2.7987
    -2.6886  -2.3359  -2.1365  -1.7656   1.2037   1.8265   2.6200   6.4660
     6.6699   7.0466

          k = 0.2500 0.5774-0.3051 (  2400 PWs)   bands (ev):

  -126.7520-125.8510 -80.5147 -79.5497 -79.0660 -79.0485 -78.2598 -78.2426
    -9.8442  -7.7034  -5.0811  -5.0387  -4.3533  -3.9371  -3.8502  -2.8147
    -2.6428  -2.3308  -2.1110  -1.7474   1.1793   1.8331   2.6062   6.5146
     6.7364   7.1715

          k = 0.0000-0.1443 0.0763 (  2435 PWs)   bands (ev):

  -126.7520-125.8510 -80.5227 -79.5568 -79.0896 -79.0860 -78.2833 -78.2797
   -10.1302  -7.7710  -5.0899  -5.0548  -4.8985  -3.9193  -3.8899  -2.8440
    -2.8348  -2.4853  -2.4577  -1.9876   1.9243   3.3278   3.8366   6.1865
     7.1490   7.5805

          k = 0.0000-0.1443 0.1526 (  2427 PWs)   bands (ev):

  -126.7520-125.8510 -80.5155 -79.5499 -79.0914 -79.0764 -78.2851 -78.2698
   -10.1220  -7.7695  -5.0676  -5.0373  -4.8774  -3.8879  -3.8761  -2.8267
    -2.8254  -2.4793  -2.4374  -2.0267   2.1307   3.3280   3.8447   5.8232
     7.2342   7.5547

          k = 0.0000-0.1443 0.2288 (  2435 PWs)   bands (ev):

  -126.7520-125.8510 -80.5295 -79.5640 -79.0921 -79.0822 -78.2857 -78.2750
   -10.1310  -7.8024  -5.0877  -5.0544  -4.8956  -3.8974  -3.8962  -2.8473
    -2.8272  -2.4977  -2.4357  -2.1090   2.3659   3.2889   3.8540   5.5216
     7.2046   7.5176

          k = 0.0000-0.2887 0.0763 (  2428 PWs)   bands (ev):

  -126.7520-125.8510 -80.5211 -79.5555 -79.0847 -79.0781 -78.2780 -78.2718
   -10.0277  -7.7463  -5.1290  -5.0443  -4.7171  -3.9477  -3.8707  -2.8906
    -2.7330  -2.5266  -2.2997  -1.8619   1.9466   2.4306   3.3871   5.7276
     7.1343   7.7056

          k = 0.0000-0.2887 0.1526 (  2424 PWs)   bands (ev):

  -126.7520-125.8510 -80.5257 -79.5603 -79.0769 -79.0730 -78.2706 -78.2667
   -10.0274  -7.7539  -5.1286  -5.0462  -4.7088  -3.9553  -3.8800  -2.8464
    -2.7212  -2.4760  -2.2922  -1.8874   1.9139   2.5859   3.3952   5.6422
     7.1875   7.6562

          k = 0.0000-0.2887 0.2288 (  2421 PWs)   bands (ev):

  -126.7520-125.8510 -80.5222 -79.5568 -79.0796 -79.0702 -78.2730 -78.2638
   -10.0269  -7.7640  -5.0878  -5.0397  -4.7047  -3.9271  -3.8856  -2.8587
    -2.7112  -2.4896  -2.2784  -1.9242   1.8910   2.7075   3.4052   5.7056
     7.0416   7.6081

          k = 0.0000-0.4330 0.0763 (  2418 PWs)   bands (ev):

  -126.7520-125.8510 -80.5199 -79.5544 -79.0791 -79.0686 -78.2723 -78.2622
    -9.9164  -7.7117  -5.1446  -5.0709  -4.5185  -3.9847  -3.8751  -2.8349
    -2.7199  -2.3759  -2.2340  -1.8144   1.2998   2.5632   2.9910   5.4052
     6.6805   7.7293

          k = 0.0000-0.4330 0.1526 (  2417 PWs)   bands (ev):

  -126.7520-125.8510 -80.5260 -79.5607 -79.0752 -79.0652 -78.2686 -78.2590
    -9.9271  -7.7342  -5.1513  -5.0439  -4.5266  -3.9841  -3.8473  -2.8446
    -2.6855  -2.3929  -2.1985  -1.8462   1.2284   2.6201   3.0079   5.4635
     6.8853   7.6692

          k = 0.0000-0.4330 0.2288 (  2422 PWs)   bands (ev):

  -126.7520-125.8510 -80.5303 -79.5648 -79.0858 -79.0645 -78.2792 -78.2583
    -9.9280  -7.7429  -5.1356  -5.0593  -4.5208  -3.9753  -3.9350  -2.8883
    -2.6711  -2.4102  -2.2013  -1.8840   1.1594   2.6507   3.0030   5.7161
     6.8954   7.6010

          k =-0.1250-0.3608 0.0763 (  2420 PWs)   bands (ev):

  -126.7520-125.8510 -80.5188 -79.5530 -79.0814 -79.0722 -78.2749 -78.2658
    -9.9546  -7.7312  -5.1136  -5.0671  -4.5869  -3.9444  -3.8604  -2.8542
    -2.7337  -2.4683  -2.2402  -1.8060   1.6279   2.4763   2.8116   5.6943
     6.9499   7.4904

          k =-0.1250-0.3608 0.1526 (  2430 PWs)   bands (ev):

  -126.7521-125.8510 -80.5305 -79.5649 -79.0873 -79.0799 -78.2806 -78.2733
    -9.9623  -7.7472  -5.1547  -5.0789  -4.6085  -3.9916  -3.8879  -2.8792
    -2.7475  -2.4907  -2.2497  -1.8489   1.5391   2.5618   2.8351   5.7388
     7.0766   7.4202

          k =-0.1250-0.3608 0.2288 (  2429 PWs)   bands (ev):

  -126.7521-125.8510 -80.5282 -79.5628 -79.0852 -79.0824 -78.2786 -78.2756
    -9.9582  -7.7495  -5.1405  -5.0626  -4.5959  -3.9970  -3.8972  -2.8819
    -2.7455  -2.4867  -2.2596  -1.8671   1.4735   2.6146   2.8732   5.9516
     7.0308   7.3478

          k =-0.1250-0.5052 0.0763 (  2410 PWs)   bands (ev):

  -126.7520-125.8510 -80.5159 -79.5505 -79.0800 -79.0616 -78.2735 -78.2553
    -9.8717  -7.7025  -5.1388  -5.0660  -4.4170  -3.9822  -3.8464  -2.8377
    -2.6984  -2.3455  -2.1615  -1.8493   1.1958   2.4854   2.6535   5.6368
     6.4487   7.4441

          k =-0.1250-0.5052 0.1526 (  2415 PWs)   bands (ev):

  -126.7520-125.8510 -80.5271 -79.5618 -79.0848 -79.0561 -78.2781 -78.2496
    -9.8785  -7.7167  -5.1355  -5.0983  -4.4385  -3.9656  -3.9076  -2.8378
    -2.6783  -2.3513  -2.1666  -1.8511   1.1246   2.4809   2.6537   5.7759
     6.6938   7.3661

          k =-0.1250-0.5052 0.2288 (  2412 PWs)   bands (ev):

  -126.7520-125.8510 -80.5224 -79.5573 -79.0798 -79.0587 -78.2730 -78.2525
    -9.8776  -7.7190  -5.1366  -5.0510  -4.4323  -3.9724  -3.8768  -2.8313
    -2.6852  -2.3504  -2.1653  -1.8497   1.0566   2.4874   2.6463   6.0650
     6.7900   7.3397

     highest occupied level (ev):     7.7537

!    total energy              =    -837.57243040 Ry
     estimated scf accuracy    <          2.7E-09 Ry

     The total energy is the sum of the following terms:
     one-electron contribution =    -835.23387718 Ry
     hartree contribution      =     415.70365337 Ry
     xc contribution           =     -81.85730346 Ry
     ewald contribution        =    -336.18490313 Ry

     convergence has been achieved in  12 iterations

     Writing all to output data dir ./SCRATCH/zns_w.save/

     init_run     :      2.23s CPU      2.37s WALL (       1 calls)
     electrons    :    105.02s CPU    106.28s WALL (       1 calls)

     Called by init_run:
     wfcinit      :      2.19s CPU      2.28s WALL (       1 calls)
     potinit      :      0.02s CPU      0.04s WALL (       1 calls)
     hinit0       :      0.03s CPU      0.03s WALL (       1 calls)

     Called by electrons:
     c_bands      :     97.25s CPU     98.42s WALL (      12 calls)
     sum_band     :      7.59s CPU      7.66s WALL (      12 calls)
     v_of_rho     :      0.14s CPU      0.18s WALL (      13 calls)
     mix_rho      :      0.03s CPU      0.03s WALL (      12 calls)

     Called by c_bands:
     init_us_2    :      0.77s CPU      0.93s WALL (    1625 calls)
     init_us_2:cp :      0.75s CPU      0.92s WALL (    1625 calls)
     cegterg      :     94.98s CPU     96.09s WALL (     780 calls)

     Called by *egterg:
     cdiaghg      :      2.75s CPU      2.83s WALL (    4780 calls)
     h_psi        :     64.45s CPU     65.75s WALL (    4845 calls)
     g_psi        :      0.28s CPU      0.33s WALL (    4000 calls)

     Called by h_psi:
     h_psi:calbec :      9.61s CPU      9.33s WALL (    4845 calls)
     vloc_psi     :     48.17s CPU     49.38s WALL (    4845 calls)
     add_vuspsi   :      6.47s CPU      6.62s WALL (    4845 calls)

     General routines
     calbec       :      9.59s CPU      9.31s WALL (    4845 calls)
     fft          :      0.06s CPU      0.07s WALL (     129 calls)
     ffts         :      0.02s CPU      0.01s WALL (      12 calls)
     fftw         :     50.31s CPU     50.93s WALL (  159774 calls)


     PWSCF        :   1m47.28s CPU   1m48.73s WALL


   This run was terminated on:  12:50: 4   9Jun2024            

=------------------------------------------------------------------------------=
   JOB DONE.
=------------------------------------------------------------------------------=
