
     Program PWSCF v.7.2 starts on  9Jun2024 at 12:40:18 

     This program is part of the open-source Quantum ESPRESSO suite
     for quantum simulation of materials; please cite
         "P. Giannozzi et al., J. Phys.:Condens. Matter 21 395502 (2009);
         "P. Giannozzi et al., J. Phys.:Condens. Matter 29 465901 (2017);
         "P. Giannozzi et al., J. Chem. Phys. 152 154105 (2020);
          URL http://www.quantum-espresso.org", 
     in publications or presentations arising from this work. More details at
     http://www.quantum-espresso.org/quote

     Serial version
     8617 MiB available memory on the printing compute node when the environment starts

     Waiting for input...
     Reading input from standard input

     Current dimensions of program PWSCF are:
     Max number of different atomic species (ntypx) = 10
     Max number of k-points (npk) =  40000
     Max angular momentum in pseudopotentials (lmaxx) =  4


     G-vector sticks info
     --------------------
     sticks:   dense  smooth     PW     G-vecs:    dense   smooth      PW
     Sum        1015    1015    295                42177    42177    6603

     Using Slab Decomposition



     bravais-lattice index     =            4
     lattice parameter (alat)  =       7.2188  a.u.
     unit-cell volume          =     533.8610 (a.u.)^3
     number of atoms/cell      =            4
     number of atomic types    =            2
     number of electrons       =        52.00
     number of Kohn-Sham states=           26
     kinetic-energy cutoff     =      70.0000  Ry
     charge density cutoff     =     280.0000  Ry
     scf convergence threshold =      1.0E-08
     mixing beta               =       0.7000
     number of iterations used =            8  plain     mixing
     Exchange-correlation= PBE
                           (   1   4   3   4   0   0   0)

     celldm(1)=   7.218753  celldm(2)=   0.000000  celldm(3)=   1.638743
     celldm(4)=   0.000000  celldm(5)=   0.000000  celldm(6)=   0.000000

     crystal axes: (cart. coord. in units of alat)
               a(1) = (   1.000000   0.000000   0.000000 )  
               a(2) = (  -0.500000   0.866025   0.000000 )  
               a(3) = (   0.000000   0.000000   1.638743 )  

     reciprocal axes: (cart. coord. in units 2 pi/alat)
               b(1) = (  1.000000  0.577350 -0.000000 )  
               b(2) = (  0.000000  1.154701  0.000000 )  
               b(3) = (  0.000000 -0.000000  0.610224 )  


     PseudoPot. # 1 for Zn read from file:
     /home/paolo/project_labqsm/pseudopotentials/Zn_ONCV_PBE-1.2.upf
     MD5 check sum: 732f41c0cd6489a4b50a33b4ec99a2d3
     Pseudo is Norm-conserving, Zval = 20.0
     Generated using ONCVPSP code by D. R. Hamann
     Using radial grid of  602 points,  6 beta functions with: 
                l(1) =   0
                l(2) =   0
                l(3) =   1
                l(4) =   1
                l(5) =   2
                l(6) =   2

     PseudoPot. # 2 for S  read from file:
     /home/paolo/project_labqsm/pseudopotentials/S_ONCV_PBE-1.2.upf
     MD5 check sum: f9d020296ee6110346977bfd66d424f6
     Pseudo is Norm-conserving, Zval =  6.0
     Generated using ONCVPSP code by D. R. Hamann
     Using radial grid of  602 points,  4 beta functions with: 
                l(1) =   0
                l(2) =   0
                l(3) =   1
                l(4) =   1

     atomic species   valence    mass     pseudopotential
        Zn            20.00    65.38000     Zn( 1.00)
        S              6.00    32.06000     S ( 1.00)

      6 Sym. Ops. (no inversion) found



   Cartesian axes

     site n.     atom                  positions (alat units)
         1           Zn  tau(   1) = (   0.0000000   0.0000000   0.0000000  )
         2           S   tau(   2) = (   0.0000000   0.0000000   0.3723729  )
         3           Zn  tau(   3) = (   0.0000000   0.5773503   0.5000000  )
         4           S   tau(   4) = (   0.0000000   0.5773503   0.8723729  )

     number of k points=    34
                       cart. coord. in units 2pi/alat
        k(    1) = (   0.0000000   0.0000000   0.0000000), wk =   0.0092593
        k(    2) = (   0.0000000   0.0000000   0.1017039), wk =   0.0185185
        k(    3) = (   0.0000000   0.0000000   0.2034079), wk =   0.0185185
        k(    4) = (   0.0000000   0.0000000  -0.3051118), wk =   0.0092593
        k(    5) = (   0.0000000   0.1924501   0.0000000), wk =   0.0555556
        k(    6) = (   0.0000000   0.1924501   0.1017039), wk =   0.0555556
        k(    7) = (   0.0000000   0.1924501   0.2034079), wk =   0.0555556
        k(    8) = (   0.0000000   0.1924501  -0.3051118), wk =   0.0555556
        k(    9) = (   0.0000000   0.3849002   0.0000000), wk =   0.0555556
        k(   10) = (   0.0000000   0.3849002   0.1017039), wk =   0.0555556
        k(   11) = (   0.0000000   0.3849002   0.2034079), wk =   0.0555556
        k(   12) = (   0.0000000   0.3849002  -0.3051118), wk =   0.0555556
        k(   13) = (   0.0000000  -0.5773503   0.0000000), wk =   0.0277778
        k(   14) = (   0.0000000  -0.5773503   0.1017039), wk =   0.0555556
        k(   15) = (   0.0000000  -0.5773503   0.2034079), wk =   0.0555556
        k(   16) = (   0.0000000  -0.5773503  -0.3051118), wk =   0.0277778
        k(   17) = (   0.1666667   0.2886751   0.0000000), wk =   0.0555556
        k(   18) = (   0.1666667   0.2886751   0.1017039), wk =   0.1111111
        k(   19) = (   0.1666667   0.2886751   0.2034079), wk =   0.1111111
        k(   20) = (   0.1666667   0.2886751  -0.3051118), wk =   0.0555556
        k(   21) = (   0.1666667   0.4811252   0.0000000), wk =   0.1111111
        k(   22) = (   0.1666667   0.4811252   0.1017039), wk =   0.1111111
        k(   23) = (   0.1666667   0.4811252   0.2034079), wk =   0.1111111
        k(   24) = (   0.1666667   0.4811252  -0.3051118), wk =   0.1111111
        k(   25) = (   0.3333333   0.5773503   0.0000000), wk =   0.0185185
        k(   26) = (   0.3333333   0.5773503   0.1017039), wk =   0.0370370
        k(   27) = (   0.3333333   0.5773503   0.2034079), wk =   0.0370370
        k(   28) = (   0.3333333   0.5773503  -0.3051118), wk =   0.0185185
        k(   29) = (   0.0000000  -0.1924501   0.1017039), wk =   0.0555556
        k(   30) = (   0.0000000  -0.1924501   0.2034079), wk =   0.0555556
        k(   31) = (   0.0000000  -0.3849002   0.1017039), wk =   0.0555556
        k(   32) = (   0.0000000  -0.3849002   0.2034079), wk =   0.0555556
        k(   33) = (  -0.1666667  -0.4811252   0.1017039), wk =   0.1111111
        k(   34) = (  -0.1666667  -0.4811252   0.2034079), wk =   0.1111111

     Dense  grid:    42177 G-vectors     FFT dimensions: (  40,  40,  64)

     Estimated max dynamical RAM per process >     114.57 MB

     Initial potential from superposition of free atoms

     starting charge      51.9339, renormalised to      52.0000
     Starting wfcs are random

     total cpu time spent up to now is        2.8 secs

     Self-consistent Calculation

     iteration #  1     ecut=    70.00 Ry     beta= 0.70
     Davidson diagonalization with overlap
     ethr =  1.00E-02,  avg # of iterations = 14.9

     total cpu time spent up to now is       38.9 secs

     total energy              =    -838.97650384 Ry
     estimated scf accuracy    <       1.26480645 Ry

     iteration #  2     ecut=    70.00 Ry     beta= 0.70
     Davidson diagonalization with overlap
     ethr =  2.43E-03,  avg # of iterations =  8.2

     total cpu time spent up to now is       49.7 secs

     total energy              =    -838.42974975 Ry
     estimated scf accuracy    <       6.83670362 Ry

     iteration #  3     ecut=    70.00 Ry     beta= 0.70
     Davidson diagonalization with overlap
     ethr =  2.43E-03,  avg # of iterations =  6.2

     total cpu time spent up to now is       59.3 secs

     total energy              =    -839.63716055 Ry
     estimated scf accuracy    <       0.34351638 Ry

     iteration #  4     ecut=    70.00 Ry     beta= 0.70
     Davidson diagonalization with overlap
     ethr =  6.61E-04,  avg # of iterations =  2.0

     total cpu time spent up to now is       66.7 secs

     total energy              =    -839.65332539 Ry
     estimated scf accuracy    <       0.07550857 Ry

     iteration #  5     ecut=    70.00 Ry     beta= 0.70
     Davidson diagonalization with overlap
     ethr =  1.45E-04,  avg # of iterations =  4.2

     total cpu time spent up to now is       74.3 secs

     total energy              =    -839.66134833 Ry
     estimated scf accuracy    <       0.00602124 Ry

     iteration #  6     ecut=    70.00 Ry     beta= 0.70
     Davidson diagonalization with overlap
     ethr =  1.16E-05,  avg # of iterations =  4.5

     total cpu time spent up to now is       82.4 secs

     total energy              =    -839.66267538 Ry
     estimated scf accuracy    <       0.00098304 Ry

     iteration #  7     ecut=    70.00 Ry     beta= 0.70
     Davidson diagonalization with overlap
     ethr =  1.89E-06,  avg # of iterations =  3.9

     total cpu time spent up to now is       90.8 secs

     total energy              =    -839.66291736 Ry
     estimated scf accuracy    <       0.00020317 Ry

     iteration #  8     ecut=    70.00 Ry     beta= 0.70
     Davidson diagonalization with overlap
     ethr =  3.91E-07,  avg # of iterations =  3.4

     total cpu time spent up to now is       98.2 secs

     total energy              =    -839.66293763 Ry
     estimated scf accuracy    <       0.00001514 Ry

     iteration #  9     ecut=    70.00 Ry     beta= 0.70
     Davidson diagonalization with overlap
     ethr =  2.91E-08,  avg # of iterations =  5.3

     total cpu time spent up to now is      107.3 secs

     total energy              =    -839.66294339 Ry
     estimated scf accuracy    <       0.00000457 Ry

     iteration # 10     ecut=    70.00 Ry     beta= 0.70
     Davidson diagonalization with overlap
     ethr =  8.79E-09,  avg # of iterations =  4.0

     total cpu time spent up to now is      114.8 secs

     total energy              =    -839.66294386 Ry
     estimated scf accuracy    <       0.00000018 Ry

     iteration # 11     ecut=    70.00 Ry     beta= 0.70
     Davidson diagonalization with overlap
     ethr =  3.53E-10,  avg # of iterations =  5.1

     total cpu time spent up to now is      124.0 secs

     total energy              =    -839.66294393 Ry
     estimated scf accuracy    <       0.00000007 Ry

     iteration # 12     ecut=    70.00 Ry     beta= 0.70
     Davidson diagonalization with overlap
     ethr =  1.26E-10,  avg # of iterations =  2.9

     total cpu time spent up to now is      131.4 secs

     End of self-consistent calculation

          k = 0.0000 0.0000 0.0000 (  5275 PWs)   bands (ev):

  -121.3277-120.4909 -76.7438 -75.8435 -75.1472 -75.1472 -74.4176 -74.4176
    -9.3662  -6.7417  -4.0406  -3.9534  -3.9534  -2.8290  -2.8290  -1.5518
    -1.5518  -1.3194  -1.3194  -1.2627   2.4655   4.7453   4.7453   7.3003
     8.2195   8.2195

          k = 0.0000 0.0000 0.1017 (  5293 PWs)   bands (ev):

  -121.3277-120.4909 -76.7438 -75.8435 -75.1472 -75.1472 -74.4176 -74.4176
    -9.3633  -6.7454  -4.0434  -3.9533  -3.9533  -2.8297  -2.8297  -1.5515
    -1.5515  -1.3191  -1.3191  -1.3052   2.6539   4.7519   4.7519   6.8389
     8.2044   8.2044

          k = 0.0000 0.0000 0.2034 (  5330 PWs)   bands (ev):

  -121.3277-120.4909 -76.7438 -75.8435 -75.1472 -75.1472 -74.4176 -74.4176
    -9.3572  -6.7528  -4.0489  -3.9532  -3.9532  -2.8310  -2.8310  -1.5509
    -1.5509  -1.3840  -1.3185  -1.3185   3.0934   4.7651   4.7651   6.0951
     8.1741   8.1741

          k = 0.0000 0.0000-0.3051 (  5324 PWs)   bands (ev):

  -121.3277-120.4909 -76.7438 -75.8435 -75.1472 -75.1472 -74.4176 -74.4176
    -9.3542  -6.7566  -4.0516  -3.9532  -3.9532  -2.8316  -2.8316  -1.5506
    -1.5506  -1.4207  -1.3182  -1.3182   3.3735   4.7718   4.7718   5.7084
     8.1588   8.1588

          k = 0.0000 0.1925 0.0000 (  5307 PWs)   bands (ev):

  -121.3277-120.4909 -76.7438 -75.8435 -75.1472 -75.1472 -74.4176 -74.4176
    -9.2717  -6.7263  -4.0795  -3.9589  -3.8515  -2.8708  -2.8264  -1.5670
    -1.5392  -1.4368  -1.2700  -1.0255   2.6630   3.6524   4.3476   7.1191
     7.9175   8.3800

          k = 0.0000 0.1925 0.1017 (  5301 PWs)   bands (ev):

  -121.3277-120.4909 -76.7438 -75.8435 -75.1472 -75.1472 -74.4176 -74.4176
    -9.2691  -6.7291  -4.0813  -3.9587  -3.8523  -2.8712  -2.8272  -1.5669
    -1.5390  -1.4416  -1.2698  -1.0540   2.7885   3.6591   4.3570   7.1324
     7.6556   8.3442

          k = 0.0000 0.1925 0.2034 (  5286 PWs)   bands (ev):

  -121.3277-120.4909 -76.7438 -75.8435 -75.1472 -75.1472 -74.4176 -74.4176
    -9.2639  -6.7347  -4.0845  -3.9584  -3.8540  -2.8723  -2.8287  -1.5698
    -1.5385  -1.4500  -1.2692  -1.1062   3.0506   3.7059   4.3736   6.7151
     7.6334   8.2880

          k = 0.0000 0.1925-0.3051 (  5268 PWs)   bands (ev):

  -121.3277-120.4908 -76.7438 -75.8435 -75.1472 -75.1472 -74.4176 -74.4176
    -9.2613  -6.7375  -4.0861  -3.9584  -3.8549  -2.8730  -2.8293  -1.5732
    -1.5382  -1.4532  -1.2689  -1.1299   3.1788   3.7663   4.3807   6.4055
     7.7086   8.2671

          k = 0.0000 0.3849 0.0000 (  5286 PWs)   bands (ev):

  -121.3277-120.4908 -76.7438 -75.8435 -75.1472 -75.1472 -74.4177 -74.4176
    -9.0739  -6.6954  -4.1141  -3.9701  -3.6479  -2.9372  -2.8209  -1.5959
    -1.5138  -1.5002  -1.1622  -0.7901   2.1602   3.2848   3.6992   6.2654
     7.5604   8.4930

          k = 0.0000 0.3849 0.1017 (  5274 PWs)   bands (ev):

  -121.3277-120.4908 -76.7438 -75.8435 -75.1472 -75.1472 -74.4177 -74.4176
    -9.0724  -6.6963  -4.1151  -3.9698  -3.6493  -2.9374  -2.8220  -1.5928
    -1.5137  -1.4996  -1.1620  -0.7994   2.0859   3.3580   3.7101   6.5505
     7.4458   8.4355

          k = 0.0000 0.3849 0.2034 (  5277 PWs)   bands (ev):

  -121.3277-120.4908 -76.7438 -75.8435 -75.1472 -75.1472 -74.4177 -74.4176
    -9.0693  -6.6981  -4.1165  -3.9693  -3.6526  -2.9384  -2.8239  -1.5961
    -1.5134  -1.4874  -1.1617  -0.8244   1.9840   3.5013   3.7304   6.8860
     7.3546   8.3365

          k = 0.0000 0.3849-0.3051 (  5282 PWs)   bands (ev):

  -121.3277-120.4909 -76.7438 -75.8435 -75.1472 -75.1472 -74.4177 -74.4176
    -9.0677  -6.6991  -4.1169  -3.9691  -3.6544  -2.9392  -2.8248  -1.6016
    -1.5132  -1.4763  -1.1615  -0.8402   1.9505   3.5786   3.7399   6.7674
     7.4953   8.2941

          k = 0.0000-0.5774 0.0000 (  5258 PWs)   bands (ev):

  -121.3277-120.4908 -76.7438 -75.8435 -75.1472 -75.1472 -74.4177 -74.4176
    -8.9703  -6.6798  -4.1265  -3.9757  -3.5175  -2.9626  -2.8182  -1.6076
    -1.5017  -1.5009  -1.1028  -0.7983   1.7233   3.4167   3.5251   6.3551
     6.6608   8.4937

          k = 0.0000-0.5774 0.1017 (  5290 PWs)   bands (ev):

  -121.3277-120.4909 -76.7438 -75.8435 -75.1472 -75.1472 -74.4177 -74.4176
    -8.9694  -6.6798  -4.1268  -3.9755  -3.5198  -2.9633  -2.8193  -1.6087
    -1.5008  -1.4911  -1.1027  -0.7980   1.6570   3.4273   3.5162   6.3633
     6.9674   8.4323

          k = 0.0000-0.5774 0.2034 (  5278 PWs)   bands (ev):

  -121.3277-120.4908 -76.7438 -75.8435 -75.1472 -75.1472 -74.4177 -74.4176
    -8.9675  -6.6796  -4.1274  -3.9748  -3.5243  -2.9646  -2.8214  -1.6103
    -1.5006  -1.4700  -1.1025  -0.7973   1.5350   3.4490   3.4814   6.6629
     7.3160   8.3155

          k = 0.0000-0.5774-0.3051 (  5268 PWs)   bands (ev):

  -121.3277-120.4908 -76.7438 -75.8435 -75.1472 -75.1472 -74.4177 -74.4176
    -8.9666  -6.6794  -4.1277  -3.9745  -3.5265  -2.9653  -2.8225  -1.6109
    -1.5005  -1.4594  -1.1024  -0.7969   1.4782   3.4583   3.4599   7.0901
     7.1764   8.2596

          k = 0.1667 0.2887 0.0000 (  5293 PWs)   bands (ev):

  -121.3277-120.4909 -76.7438 -75.8435 -75.1472 -75.1472 -74.4177 -74.4176
    -9.1249  -6.7029  -4.0991  -3.9776  -3.7015  -2.9182  -2.8275  -1.5773
    -1.5429  -1.4849  -1.1850  -0.8218   2.5810   3.1739   3.5269   6.6282
     7.8802   8.2256

          k = 0.1667 0.2887 0.1017 (  5284 PWs)   bands (ev):

  -121.3277-120.4908 -76.7438 -75.8435 -75.1472 -75.1472 -74.4177 -74.4176
    -9.1231  -6.7043  -4.1000  -3.9773  -3.7028  -2.9186  -2.8284  -1.5799
    -1.5396  -1.4834  -1.1849  -0.8404   2.5104   3.2905   3.5616   6.6283
     7.9228   8.1768

          k = 0.1667 0.2887 0.2034 (  5281 PWs)   bands (ev):

  -121.3277-120.4908 -76.7438 -75.8435 -75.1472 -75.1472 -74.4177 -74.4176
    -9.1194  -6.7072  -4.1020  -3.9769  -3.7055  -2.9193  -2.8304  -1.5841
    -1.5341  -1.4799  -1.1849  -0.8770   2.4238   3.4209   3.6706   6.7630
     7.7938   8.0819

          k = 0.1667 0.2887-0.3051 (  5290 PWs)   bands (ev):

  -121.3277-120.4909 -76.7438 -75.8435 -75.1472 -75.1472 -74.4177 -74.4176
    -9.1176  -6.7086  -4.1030  -3.9768  -3.7068  -2.9197  -2.8314  -1.5860
    -1.5318  -1.4780  -1.1849  -0.8950   2.3940   3.4548   3.7371   6.9859
     7.5339   8.0201

          k = 0.1667 0.4811 0.0000 (  5279 PWs)   bands (ev):

  -121.3277-120.4908 -76.7438 -75.8435 -75.1472 -75.1472 -74.4177 -74.4177
    -8.9723  -6.6790  -4.1036  -4.0000  -3.5157  -2.9530  -2.8310  -1.5941
    -1.5553  -1.4832  -1.0995  -0.7250   1.9378   2.8569   3.5282   6.3812
     7.2091   8.0232

          k = 0.1667 0.4811 0.1017 (  5270 PWs)   bands (ev):

  -121.3277-120.4908 -76.7438 -75.8435 -75.1472 -75.1472 -74.4177 -74.4177
    -8.9714  -6.6789  -4.1040  -3.9997  -3.5178  -2.9533  -2.8323  -1.5894
    -1.5521  -1.4831  -1.0997  -0.7256   1.8729   2.8556   3.5332   6.6103
     7.3016   7.9128

          k = 0.1667 0.4811 0.2034 (  5279 PWs)   bands (ev):

  -121.3277-120.4908 -76.7438 -75.8435 -75.1472 -75.1472 -74.4177 -74.4177
    -8.9694  -6.6787  -4.1046  -3.9993  -3.5220  -2.9541  -2.8349  -1.5889
    -1.5371  -1.4814  -1.1002  -0.7300   1.7613   2.8611   3.5317   7.0070
     7.5187   7.8184

          k = 0.1667 0.4811-0.3051 (  5276 PWs)   bands (ev):

  -121.3277-120.4908 -76.7438 -75.8435 -75.1472 -75.1472 -74.4177 -74.4177
    -8.9685  -6.6787  -4.1048  -3.9991  -3.5242  -2.9545  -2.8361  -1.5912
    -1.5277  -1.4793  -1.1004  -0.7340   1.7136   2.8663   3.5269   7.1439
     7.5792   7.9109

          k = 0.3333 0.5774 0.0000 (  5268 PWs)   bands (ev):

  -121.3277-120.4908 -76.7438 -75.8435 -75.1472 -75.1472 -74.4177 -74.4177
    -8.9219  -6.6700  -4.0566  -4.0545  -3.4394  -2.9531  -2.8436  -1.6059
    -1.5602  -1.4826  -1.0888  -0.6372   2.0371   2.1801   3.6201   6.6389
     7.0773   7.5822

          k = 0.3333 0.5774 0.1017 (  5250 PWs)   bands (ev):

  -121.3277-120.4908 -76.7438 -75.8435 -75.1472 -75.1472 -74.4177 -74.4177
    -8.9213  -6.6694  -4.0563  -4.0548  -3.4418  -2.9533  -2.8453  -1.5946
    -1.5602  -1.4840  -1.0888  -0.6371   2.0528   2.1062   3.5808   6.8534
     7.2612   7.4334

          k = 0.3333 0.5774 0.2034 (  5262 PWs)   bands (ev):

  -121.3277-120.4908 -76.7438 -75.8435 -75.1472 -75.1472 -74.4177 -74.4177
    -8.9200  -6.6683  -4.0556  -4.0553  -3.4466  -2.9537  -2.8486  -1.5703
    -1.5601  -1.4879  -1.0890  -0.6369   1.9677   2.0848   3.5079   7.1816
     7.3301   7.6963

          k = 0.3333 0.5774-0.3051 (  5274 PWs)   bands (ev):

  -121.3277-120.4908 -76.7438 -75.8435 -75.1472 -75.1472 -74.4177 -74.4177
    -8.9193  -6.6678  -4.0556  -4.0552  -3.4490  -2.9538  -2.8503  -1.5600
    -1.5567  -1.4910  -1.0891  -0.6369   1.9024   2.1011   3.4740   7.0711
     7.6096   7.9821

          k = 0.0000-0.1925 0.1017 (  5301 PWs)   bands (ev):

  -121.3277-120.4909 -76.7438 -75.8435 -75.1472 -75.1472 -74.4176 -74.4176
    -9.2691  -6.7291  -4.0810  -3.9589  -3.8524  -2.8716  -2.8270  -1.5694
    -1.5389  -1.4392  -1.2697  -1.0548   2.7878   3.6867   4.3545   6.7899
     8.0696   8.3588

          k = 0.0000-0.1925 0.2034 (  5286 PWs)   bands (ev):

  -121.3277-120.4909 -76.7438 -75.8435 -75.1472 -75.1472 -74.4176 -74.4176
    -9.2639  -6.7347  -4.0843  -3.9586  -3.8541  -2.8727  -2.8285  -1.5726
    -1.5384  -1.4472  -1.2692  -1.1070   3.0436   3.7473   4.3710   6.4683
     7.9052   8.3022

          k = 0.0000-0.3849 0.1017 (  5274 PWs)   bands (ev):

  -121.3277-120.4908 -76.7438 -75.8435 -75.1472 -75.1472 -74.4177 -74.4176
    -9.0723  -6.6963  -4.1145  -3.9699  -3.6497  -2.9380  -2.8218  -1.6018
    -1.5136  -1.4892  -1.1620  -0.8055   2.1019   3.4056   3.7084   6.1103
     7.8253   8.4475

          k = 0.0000-0.3849 0.2034 (  5277 PWs)   bands (ev):

  -121.3277-120.4908 -76.7438 -75.8435 -75.1472 -75.1472 -74.4177 -74.4176
    -9.0692  -6.6981  -4.1160  -3.9694  -3.6529  -2.9390  -2.8237  -1.6043
    -1.5133  -1.4775  -1.1616  -0.8306   1.9993   3.5514   3.7287   6.2860
     7.8735   8.3478

          k =-0.1667-0.4811 0.1017 (  5270 PWs)   bands (ev):

  -121.3277-120.4908 -76.7438 -75.8435 -75.1472 -75.1472 -74.4177 -74.4177
    -8.9714  -6.6789  -4.1038  -3.9998  -3.5179  -2.9535  -2.8322  -1.5963
    -1.5456  -1.4820  -1.0997  -0.7287   1.8827   2.8536   3.5443   6.4091
     7.4563   7.9667

          k =-0.1667-0.4811 0.2034 (  5279 PWs)   bands (ev):

  -121.3277-120.4908 -76.7438 -75.8435 -75.1472 -75.1472 -74.4177 -74.4177
    -8.9694  -6.6787  -4.1044  -3.9994  -3.5221  -2.9542  -2.8348  -1.5943
    -1.5324  -1.4799  -1.1002  -0.7332   1.7705   2.8594   3.5408   6.7510
     7.6253   7.9727

     highest occupied level (ev):     8.4937

!    total energy              =    -839.66294394 Ry
     estimated scf accuracy    <          4.2E-09 Ry

     The total energy is the sum of the following terms:
     one-electron contribution =    -832.76492352 Ry
     hartree contribution      =     418.84150789 Ry
     xc contribution           =     -82.83092708 Ry
     ewald contribution        =    -342.90860122 Ry

     convergence has been achieved in  12 iterations

     Writing all to output data dir ./SCRATCH/zns_w.save/

     init_run     :      2.61s CPU      2.77s WALL (       1 calls)
     electrons    :    127.81s CPU    128.64s WALL (       1 calls)

     Called by init_run:
     wfcinit      :      2.47s CPU      2.61s WALL (       1 calls)
     potinit      :      0.06s CPU      0.09s WALL (       1 calls)
     hinit0       :      0.05s CPU      0.05s WALL (       1 calls)

     Called by electrons:
     c_bands      :    117.62s CPU    118.37s WALL (      12 calls)
     sum_band     :      9.72s CPU      9.79s WALL (      12 calls)
     v_of_rho     :      0.39s CPU      0.45s WALL (      13 calls)
     mix_rho      :      0.11s CPU      0.07s WALL (      12 calls)

     Called by c_bands:
     init_us_2    :      1.06s CPU      1.08s WALL (     850 calls)
     init_us_2:cp :      1.06s CPU      1.08s WALL (     850 calls)
     cegterg      :    115.31s CPU    115.77s WALL (     408 calls)

     Called by *egterg:
     cdiaghg      :      1.38s CPU      1.52s WALL (    2606 calls)
     h_psi        :     82.25s CPU     82.70s WALL (    2640 calls)
     g_psi        :      0.28s CPU      0.37s WALL (    2198 calls)

     Called by h_psi:
     h_psi:calbec :     11.03s CPU     10.93s WALL (    2640 calls)
     vloc_psi     :     63.25s CPU     63.64s WALL (    2640 calls)
     add_vuspsi   :      7.64s CPU      7.67s WALL (    2640 calls)

     General routines
     calbec       :     11.02s CPU     10.92s WALL (    2640 calls)
     fft          :      0.20s CPU      0.17s WALL (     129 calls)
     ffts         :      0.00s CPU      0.02s WALL (      12 calls)
     fftw         :     65.81s CPU     65.99s WALL (   83688 calls)


     PWSCF        :   2m10.42s CPU   2m11.49s WALL


   This run was terminated on:  12:42:30   9Jun2024            

=------------------------------------------------------------------------------=
   JOB DONE.
=------------------------------------------------------------------------------=
