
     Program PWSCF v.7.2 starts on 10Jun2024 at  9:32:16 

     This program is part of the open-source Quantum ESPRESSO suite
     for quantum simulation of materials; please cite
         "P. Giannozzi et al., J. Phys.:Condens. Matter 21 395502 (2009);
         "P. Giannozzi et al., J. Phys.:Condens. Matter 29 465901 (2017);
         "P. Giannozzi et al., J. Chem. Phys. 152 154105 (2020);
          URL http://www.quantum-espresso.org", 
     in publications or presentations arising from this work. More details at
     http://www.quantum-espresso.org/quote

     Serial version
     9898 MiB available memory on the printing compute node when the environment starts

     Waiting for input...
     Reading input from standard input

     Current dimensions of program PWSCF are:
     Max number of different atomic species (ntypx) = 10
     Max number of k-points (npk) =  40000
     Max angular momentum in pseudopotentials (lmaxx) =  4


     G-vector sticks info
     --------------------
     sticks:   dense  smooth     PW     G-vecs:    dense   smooth      PW
     Sum         913     913    253                35591    35591    5613

     Using Slab Decomposition



     bravais-lattice index     =            4
     lattice parameter (alat)  =       7.3631  a.u.
     unit-cell volume          =     566.5376 (a.u.)^3
     number of atoms/cell      =            4
     number of atomic types    =            2
     number of electrons       =        52.00
     number of Kohn-Sham states=           26
     kinetic-energy cutoff     =      60.0000  Ry
     charge density cutoff     =     240.0000  Ry
     scf convergence threshold =      1.0E-08
     mixing beta               =       0.7000
     number of iterations used =            8  plain     mixing
     Exchange-correlation= PBE
                           (   1   4   3   4   0   0   0)

     celldm(1)=   7.363128  celldm(2)=   0.000000  celldm(3)=   1.638743
     celldm(4)=   0.000000  celldm(5)=   0.000000  celldm(6)=   0.000000

     crystal axes: (cart. coord. in units of alat)
               a(1) = (   1.000000   0.000000   0.000000 )  
               a(2) = (  -0.500000   0.866025   0.000000 )  
               a(3) = (   0.000000   0.000000   1.638743 )  

     reciprocal axes: (cart. coord. in units 2 pi/alat)
               b(1) = (  1.000000  0.577350 -0.000000 )  
               b(2) = (  0.000000  1.154701  0.000000 )  
               b(3) = (  0.000000 -0.000000  0.610224 )  


     PseudoPot. # 1 for Zn read from file:
     /home/paolo/project_labqsm/pseudopotentials/Zn_ONCV_PBE-1.2.upf
     MD5 check sum: 732f41c0cd6489a4b50a33b4ec99a2d3
     Pseudo is Norm-conserving, Zval = 20.0
     Generated using ONCVPSP code by D. R. Hamann
     Using radial grid of  602 points,  6 beta functions with: 
                l(1) =   0
                l(2) =   0
                l(3) =   1
                l(4) =   1
                l(5) =   2
                l(6) =   2

     PseudoPot. # 2 for S  read from file:
     /home/paolo/project_labqsm/pseudopotentials/S_ONCV_PBE-1.2.upf
     MD5 check sum: f9d020296ee6110346977bfd66d424f6
     Pseudo is Norm-conserving, Zval =  6.0
     Generated using ONCVPSP code by D. R. Hamann
     Using radial grid of  602 points,  4 beta functions with: 
                l(1) =   0
                l(2) =   0
                l(3) =   1
                l(4) =   1

     atomic species   valence    mass     pseudopotential
        Zn            20.00    65.38000     Zn( 1.00)
        S              6.00    32.06000     S ( 1.00)

      6 Sym. Ops. (no inversion) found



   Cartesian axes

     site n.     atom                  positions (alat units)
         1           Zn  tau(   1) = (   0.0000000   0.0000000   0.0000000  )
         2           S   tau(   2) = (   0.0000000   0.0000000   0.3723729  )
         3           Zn  tau(   3) = (   0.0000000   0.5773503   0.5000000  )
         4           S   tau(   4) = (   0.0000000   0.5773503   0.8723729  )

     number of k points=    34
                       cart. coord. in units 2pi/alat
        k(    1) = (   0.0000000   0.0000000   0.0000000), wk =   0.0092593
        k(    2) = (   0.0000000   0.0000000   0.1017039), wk =   0.0185185
        k(    3) = (   0.0000000   0.0000000   0.2034079), wk =   0.0185185
        k(    4) = (   0.0000000   0.0000000  -0.3051118), wk =   0.0092593
        k(    5) = (   0.0000000   0.1924501   0.0000000), wk =   0.0555556
        k(    6) = (   0.0000000   0.1924501   0.1017039), wk =   0.0555556
        k(    7) = (   0.0000000   0.1924501   0.2034079), wk =   0.0555556
        k(    8) = (   0.0000000   0.1924501  -0.3051118), wk =   0.0555556
        k(    9) = (   0.0000000   0.3849002   0.0000000), wk =   0.0555556
        k(   10) = (   0.0000000   0.3849002   0.1017039), wk =   0.0555556
        k(   11) = (   0.0000000   0.3849002   0.2034079), wk =   0.0555556
        k(   12) = (   0.0000000   0.3849002  -0.3051118), wk =   0.0555556
        k(   13) = (   0.0000000  -0.5773503   0.0000000), wk =   0.0277778
        k(   14) = (   0.0000000  -0.5773503   0.1017039), wk =   0.0555556
        k(   15) = (   0.0000000  -0.5773503   0.2034079), wk =   0.0555556
        k(   16) = (   0.0000000  -0.5773503  -0.3051118), wk =   0.0277778
        k(   17) = (   0.1666667   0.2886751   0.0000000), wk =   0.0555556
        k(   18) = (   0.1666667   0.2886751   0.1017039), wk =   0.1111111
        k(   19) = (   0.1666667   0.2886751   0.2034079), wk =   0.1111111
        k(   20) = (   0.1666667   0.2886751  -0.3051118), wk =   0.0555556
        k(   21) = (   0.1666667   0.4811252   0.0000000), wk =   0.1111111
        k(   22) = (   0.1666667   0.4811252   0.1017039), wk =   0.1111111
        k(   23) = (   0.1666667   0.4811252   0.2034079), wk =   0.1111111
        k(   24) = (   0.1666667   0.4811252  -0.3051118), wk =   0.1111111
        k(   25) = (   0.3333333   0.5773503   0.0000000), wk =   0.0185185
        k(   26) = (   0.3333333   0.5773503   0.1017039), wk =   0.0370370
        k(   27) = (   0.3333333   0.5773503   0.2034079), wk =   0.0370370
        k(   28) = (   0.3333333   0.5773503  -0.3051118), wk =   0.0185185
        k(   29) = (   0.0000000  -0.1924501   0.1017039), wk =   0.0555556
        k(   30) = (   0.0000000  -0.1924501   0.2034079), wk =   0.0555556
        k(   31) = (   0.0000000  -0.3849002   0.1017039), wk =   0.0555556
        k(   32) = (   0.0000000  -0.3849002   0.2034079), wk =   0.0555556
        k(   33) = (  -0.1666667  -0.4811252   0.1017039), wk =   0.1111111
        k(   34) = (  -0.1666667  -0.4811252   0.2034079), wk =   0.1111111

     Dense  grid:    35591 G-vectors     FFT dimensions: (  40,  40,  60)

     Estimated max dynamical RAM per process >      97.43 MB

     Initial potential from superposition of free atoms

     starting charge      51.9339, renormalised to      52.0000
     Starting wfcs are random

     total cpu time spent up to now is        2.4 secs

     Self-consistent Calculation

     iteration #  1     ecut=    60.00 Ry     beta= 0.70
     Davidson diagonalization with overlap
     ethr =  1.00E-02,  avg # of iterations = 15.2

     total cpu time spent up to now is       33.8 secs

     total energy              =    -839.20956647 Ry
     estimated scf accuracy    <       1.24836917 Ry

     iteration #  2     ecut=    60.00 Ry     beta= 0.70
     Davidson diagonalization with overlap
     ethr =  2.40E-03,  avg # of iterations =  8.6

     total cpu time spent up to now is       43.2 secs

     total energy              =    -838.59993639 Ry
     estimated scf accuracy    <       7.32759843 Ry

     iteration #  3     ecut=    60.00 Ry     beta= 0.70
     Davidson diagonalization with overlap
     ethr =  2.40E-03,  avg # of iterations =  6.4

     total cpu time spent up to now is       51.4 secs

     total energy              =    -839.86791514 Ry
     estimated scf accuracy    <       0.36298668 Ry

     iteration #  4     ecut=    60.00 Ry     beta= 0.70
     Davidson diagonalization with overlap
     ethr =  6.98E-04,  avg # of iterations =  2.0

     total cpu time spent up to now is       57.7 secs

     total energy              =    -839.88190107 Ry
     estimated scf accuracy    <       0.08813375 Ry

     iteration #  5     ecut=    60.00 Ry     beta= 0.70
     Davidson diagonalization with overlap
     ethr =  1.69E-04,  avg # of iterations =  3.9

     total cpu time spent up to now is       64.1 secs

     total energy              =    -839.88826878 Ry
     estimated scf accuracy    <       0.01167479 Ry

     iteration #  6     ecut=    60.00 Ry     beta= 0.70
     Davidson diagonalization with overlap
     ethr =  2.25E-05,  avg # of iterations =  4.4

     total cpu time spent up to now is       70.8 secs

     total energy              =    -839.89017128 Ry
     estimated scf accuracy    <       0.00113403 Ry

     iteration #  7     ecut=    60.00 Ry     beta= 0.70
     Davidson diagonalization with overlap
     ethr =  2.18E-06,  avg # of iterations =  4.8

     total cpu time spent up to now is       78.5 secs

     total energy              =    -839.89049560 Ry
     estimated scf accuracy    <       0.00030484 Ry

     iteration #  8     ecut=    60.00 Ry     beta= 0.70
     Davidson diagonalization with overlap
     ethr =  5.86E-07,  avg # of iterations =  3.7

     total cpu time spent up to now is       85.0 secs

     total energy              =    -839.89052659 Ry
     estimated scf accuracy    <       0.00002372 Ry

     iteration #  9     ecut=    60.00 Ry     beta= 0.70
     Davidson diagonalization with overlap
     ethr =  4.56E-08,  avg # of iterations =  5.1

     total cpu time spent up to now is       92.4 secs

     total energy              =    -839.89053350 Ry
     estimated scf accuracy    <       0.00000189 Ry

     iteration # 10     ecut=    60.00 Ry     beta= 0.70
     Davidson diagonalization with overlap
     ethr =  3.64E-09,  avg # of iterations =  4.2

     total cpu time spent up to now is       99.0 secs

     total energy              =    -839.89053376 Ry
     estimated scf accuracy    <       0.00000007 Ry

     iteration # 11     ecut=    60.00 Ry     beta= 0.70
     Davidson diagonalization with overlap
     ethr =  1.37E-10,  avg # of iterations =  5.2

     total cpu time spent up to now is      107.5 secs

     End of self-consistent calculation

          k = 0.0000 0.0000 0.0000 (  4475 PWs)   bands (ev):

  -121.8616-120.9071 -77.1453 -76.1295 -75.6999 -75.6999 -74.8385 -74.8385
    -9.8017  -7.1613  -4.3607  -4.2965  -4.2965  -3.0995  -3.0995  -2.1051
    -2.1051  -1.7368  -1.6995  -1.6995   1.8459   4.0546   4.0546   6.3611
     7.4487   7.4487

          k = 0.0000 0.0000 0.1017 (  4416 PWs)   bands (ev):

  -121.8616-120.9071 -77.1453 -76.1295 -75.6999 -75.6999 -74.8385 -74.8385
    -9.7992  -7.1646  -4.3622  -4.2958  -4.2958  -3.0992  -3.0992  -2.1045
    -2.1045  -1.7719  -1.6989  -1.6989   2.0101   4.0612   4.0612   5.9503
     7.4361   7.4361

          k = 0.0000 0.0000 0.2034 (  4440 PWs)   bands (ev):

  -121.8616-120.9071 -77.1453 -76.1295 -75.6999 -75.6999 -74.8386 -74.8386
    -9.7944  -7.1713  -4.3669  -4.2960  -4.2960  -3.1008  -3.1008  -2.1045
    -2.1045  -1.8387  -1.6989  -1.6989   2.3888   4.0725   4.0725   5.2881
     7.4092   7.4092

          k = 0.0000 0.0000-0.3051 (  4422 PWs)   bands (ev):

  -121.8616-120.9071 -77.1452 -76.1294 -75.6999 -75.6999 -74.8386 -74.8386
    -9.7919  -7.1747  -4.3684  -4.2959  -4.2959  -3.1012  -3.1012  -2.1042
    -2.1042  -1.8700  -1.6985  -1.6985   2.6242   4.0785   4.0785   4.9531
     7.3960   7.3960

          k = 0.0000 0.1925 0.0000 (  4452 PWs)   bands (ev):

  -121.8616-120.9071 -77.1453 -76.1295 -75.6999 -75.6999 -74.8386 -74.8386
    -9.7184  -7.1465  -4.4014  -4.3009  -4.1989  -3.1350  -3.0975  -2.1166
    -2.0939  -1.8459  -1.6557  -1.4898   2.0315   3.0102   3.6954   6.3497
     6.9959   7.5871

          k = 0.0000 0.1925 0.1017 (  4439 PWs)   bands (ev):

  -121.8616-120.9071 -77.1453 -76.1295 -75.6999 -75.6999 -74.8386 -74.8386
    -9.7163  -7.1490  -4.4026  -4.3006  -4.1996  -3.1353  -3.0978  -2.1164
    -2.0935  -1.8523  -1.6553  -1.5105   2.1432   3.0081   3.7041   6.3292
     6.8251   7.5555

          k = 0.0000 0.1925 0.2034 (  4442 PWs)   bands (ev):

  -121.8616-120.9071 -77.1453 -76.1295 -75.6999 -75.6999 -74.8386 -74.8386
    -9.7122  -7.1541  -4.4048  -4.3006  -4.2013  -3.1361  -3.0992  -2.1180
    -2.0931  -1.8669  -1.6549  -1.5475   2.3831   3.0230   3.7188   5.9194
     6.8885   7.5061

          k = 0.0000 0.1925-0.3051 (  4418 PWs)   bands (ev):

  -121.8616-120.9071 -77.1453 -76.1294 -75.6999 -75.6999 -74.8386 -74.8386
    -9.7100  -7.1567  -4.4056  -4.3002  -4.2018  -3.1368  -3.0994  -2.1190
    -2.0924  -1.8750  -1.6542  -1.5636   2.5090   3.0506   3.7253   5.6504
     6.9718   7.4889

          k = 0.0000 0.3849 0.0000 (  4440 PWs)   bands (ev):

  -121.8616-120.9071 -77.1452 -76.1294 -75.6999 -75.6999 -74.8386 -74.8386
    -9.5446  -7.1170  -4.4359  -4.3102  -4.0163  -3.1910  -3.0936  -2.1368
    -2.0706  -1.9179  -1.5594  -1.2676   1.6120   2.5790   3.1023   5.5970
     6.7217   7.6901

          k = 0.0000 0.3849 0.1017 (  4442 PWs)   bands (ev):

  -121.8616-120.9071 -77.1453 -76.1294 -75.6999 -75.6999 -74.8386 -74.8386
    -9.5434  -7.1179  -4.4366  -4.3100  -4.0177  -3.1913  -3.0944  -2.1372
    -2.0703  -1.9145  -1.5590  -1.2760   1.5453   2.6405   3.1119   5.8779
     6.6040   7.6394

          k = 0.0000 0.3849 0.2034 (  4445 PWs)   bands (ev):

  -121.8616-120.9071 -77.1453 -76.1295 -75.6999 -75.6999 -74.8386 -74.8386
    -9.5409  -7.1195  -4.4374  -4.3098  -4.0207  -3.1922  -3.0961  -2.1392
    -2.0701  -1.9054  -1.5588  -1.2957   1.4515   2.7631   3.1298   6.1860
     6.5385   7.5524

          k = 0.0000 0.3849-0.3051 (  4444 PWs)   bands (ev):

  -121.8616-120.9071 -77.1453 -76.1295 -75.6999 -75.6999 -74.8386 -74.8386
    -9.5396  -7.1203  -4.4378  -4.3097  -4.0222  -3.1932  -3.0968  -2.1411
    -2.0699  -1.8999  -1.5586  -1.3073   1.4193   2.8297   3.1383   6.0361
     6.7218   7.5154

          k = 0.0000-0.5774 0.0000 (  4466 PWs)   bands (ev):

  -121.8616-120.9071 -77.1452 -76.1294 -75.6999 -75.6999 -74.8386 -74.8386
    -9.4539  -7.1024  -4.4489  -4.3151  -3.9037  -3.2122  -3.0920  -2.1485
    -2.0591  -1.9352  -1.5066  -1.2416   1.1712   2.7989   2.8419   5.6961
     5.9253   7.6931

          k = 0.0000-0.5774 0.1017 (  4454 PWs)   bands (ev):

  -121.8616-120.9071 -77.1453 -76.1295 -75.6999 -75.6999 -74.8386 -74.8386
    -9.4531  -7.1023  -4.4487  -4.3147  -3.9056  -3.2124  -3.0925  -2.1494
    -2.0586  -1.9263  -1.5061  -1.2414   1.1131   2.7933   2.8516   5.6894
     6.2138   7.6395

          k = 0.0000-0.5774 0.2034 (  4448 PWs)   bands (ev):

  -121.8616-120.9071 -77.1453 -76.1295 -75.6999 -75.6999 -74.8386 -74.8386
    -9.4516  -7.1020  -4.4489  -4.3145  -3.9092  -3.2136  -3.0944  -2.1511
    -2.0583  -1.9083  -1.5057  -1.2407   1.0055   2.7679   2.8708   5.9527
     6.5274   7.5367

          k = 0.0000-0.5774-0.3051 (  4432 PWs)   bands (ev):

  -121.8616-120.9071 -77.1453 -76.1294 -75.6999 -75.6999 -74.8386 -74.8386
    -9.4509  -7.1019  -4.4488  -4.3142  -3.9112  -3.2141  -3.0950  -2.1513
    -2.0578  -1.8995  -1.5053  -1.2401   0.9554   2.7503   2.8807   6.3515
     6.3880   7.4872

          k = 0.1667 0.2887 0.0000 (  4447 PWs)   bands (ev):

  -121.8616-120.9071 -77.1453 -76.1295 -75.6999 -75.6999 -74.8386 -74.8386
    -9.5893  -7.1242  -4.4220  -4.3166  -4.0640  -3.1748  -3.0990  -2.1251
    -2.0839  -1.9081  -1.5796  -1.3046   2.0045   2.4858   2.9468   5.9219
     6.9889   7.4496

          k = 0.1667 0.2887 0.1017 (  4437 PWs)   bands (ev):

  -121.8616-120.9071 -77.1453 -76.1294 -75.6999 -75.6999 -74.8386 -74.8386
    -9.5878  -7.1255  -4.4227  -4.3163  -4.0652  -3.1752  -3.0995  -2.1258
    -2.0838  -1.9060  -1.5795  -1.3190   1.9377   2.5944   2.9693   5.9211
     7.0468   7.4031

          k = 0.1667 0.2887 0.2034 (  4453 PWs)   bands (ev):

  -121.8616-120.9071 -77.1453 -76.1295 -75.6999 -75.6999 -74.8386 -74.8386
    -9.5849  -7.1281  -4.4241  -4.3162  -4.0679  -3.1763  -3.1014  -2.1280
    -2.0834  -1.9021  -1.5794  -1.3477   1.8567   2.7382   3.0267   6.0373
     6.9813   7.3158

          k = 0.1667 0.2887-0.3051 (  4448 PWs)   bands (ev):

  -121.8616-120.9071 -77.1453 -76.1295 -75.6999 -75.6999 -74.8386 -74.8386
    -9.5834  -7.1293  -4.4245  -4.3159  -4.0688  -3.1765  -3.1021  -2.1288
    -2.0834  -1.8997  -1.5796  -1.3615   1.8290   2.7868   3.0620   6.2144
     6.7915   7.2670

          k = 0.1667 0.4811 0.0000 (  4442 PWs)   bands (ev):

  -121.8616-120.9071 -77.1452 -76.1294 -75.6999 -75.6999 -74.8386 -74.8386
    -9.4554  -7.1015  -4.4288  -4.3365  -3.9018  -3.2030  -3.1029  -2.1332
    -2.0795  -1.9430  -1.5050  -1.1880   1.3844   2.3168   2.8026   5.7128
     6.4320   7.2726

          k = 0.1667 0.4811 0.1017 (  4448 PWs)   bands (ev):

  -121.8616-120.9071 -77.1452 -76.1294 -75.6999 -75.6999 -74.8386 -74.8386
    -9.4546  -7.1015  -4.4290  -4.3363  -3.9035  -3.2033  -3.1042  -2.1335
    -2.0786  -1.9370  -1.5052  -1.1892   1.3261   2.3158   2.8090   5.9256
     6.5131   7.1724

          k = 0.1667 0.4811 0.2034 (  4455 PWs)   bands (ev):

  -121.8616-120.9071 -77.1453 -76.1295 -75.6999 -75.6999 -74.8386 -74.8386
    -9.4531  -7.1013  -4.4291  -4.3361  -3.9073  -3.2040  -3.1063  -2.1343
    -2.0770  -1.9238  -1.5057  -1.1930   1.2249   2.3227   2.8100   6.2851
     6.7289   7.0646

          k = 0.1667 0.4811-0.3051 (  4456 PWs)   bands (ev):

  -121.8616-120.9071 -77.1453 -76.1295 -75.6999 -75.6999 -74.8386 -74.8386
    -9.4524  -7.1013  -4.4293  -4.3357  -3.9094  -3.2045  -3.1071  -2.1350
    -2.0761  -1.9166  -1.5059  -1.1960   1.1810   2.3291   2.8065   6.4171
     6.7805   7.1422

          k = 0.3333 0.5774 0.0000 (  4455 PWs)   bands (ev):

  -121.8616-120.9071 -77.1453 -76.1295 -75.6999 -75.6999 -74.8386 -74.8386
    -9.4111  -7.0932  -4.3893  -4.3842  -3.8369  -3.2012  -3.1149  -2.1183
    -2.1049  -1.9526  -1.4948  -1.1044   1.5735   1.5794   2.8913   5.9149
     6.3561   6.8813

          k = 0.3333 0.5774 0.1017 (  4473 PWs)   bands (ev):

  -121.8616-120.9071 -77.1453 -76.1295 -75.6999 -75.6999 -74.8386 -74.8386
    -9.4105  -7.0927  -4.3896  -4.3842  -3.8388  -3.2016  -3.1165  -2.1157
    -2.1052  -1.9471  -1.4952  -1.1046   1.5088   1.5933   2.8583   6.1056
     6.5224   6.7506

          k = 0.3333 0.5774 0.2034 (  4467 PWs)   bands (ev):

  -121.8616-120.9071 -77.1453 -76.1295 -75.6999 -75.6999 -74.8386 -74.8386
    -9.4095  -7.0916  -4.3895  -4.3834  -3.8429  -3.2017  -3.1190  -2.1102
    -2.1050  -1.9354  -1.4951  -1.1042   1.3875   1.6222   2.7968   6.5262
     6.5263   6.9172

          k = 0.3333 0.5774-0.3051 (  4476 PWs)   bands (ev):

  -121.8616-120.9071 -77.1453 -76.1295 -75.6999 -75.6999 -74.8386 -74.8386
    -9.4090  -7.0912  -4.3897  -4.3832  -3.8453  -3.2020  -3.1206  -2.1075
    -2.1048  -1.9295  -1.4948  -1.1039   1.3298   1.6368   2.7677   6.4268
     6.7679   7.1755

          k = 0.0000-0.1925 0.1017 (  4439 PWs)   bands (ev):

  -121.8616-120.9071 -77.1453 -76.1295 -75.6999 -75.6999 -74.8386 -74.8386
    -9.7163  -7.1490  -4.4024  -4.3006  -4.1997  -3.1355  -3.0978  -2.1171
    -2.0934  -1.8523  -1.6553  -1.5105   2.1421   3.0337   3.7017   6.0129
     7.2009   7.5693

          k = 0.0000-0.1925 0.2034 (  4442 PWs)   bands (ev):

  -121.8616-120.9071 -77.1453 -76.1295 -75.6999 -75.6999 -74.8386 -74.8386
    -9.7121  -7.1541  -4.4046  -4.3007  -4.2013  -3.1363  -3.0992  -2.1187
    -2.0929  -1.8670  -1.6548  -1.5475   2.3765   3.0597   3.7163   5.7085
     7.1221   7.5195

          k = 0.0000-0.3849 0.1017 (  4442 PWs)   bands (ev):

  -121.8616-120.9071 -77.1453 -76.1294 -75.6999 -75.6999 -74.8386 -74.8386
    -9.5434  -7.1179  -4.4362  -4.3102  -4.0179  -3.1918  -3.0943  -2.1390
    -2.0701  -1.9130  -1.5590  -1.2791   1.5570   2.6827   3.1104   5.4487
     6.9751   7.6506

          k = 0.0000-0.3849 0.2034 (  4445 PWs)   bands (ev):

  -121.8616-120.9071 -77.1453 -76.1295 -75.6999 -75.6999 -74.8386 -74.8386
    -9.5409  -7.1195  -4.4371  -4.3099  -4.0208  -3.1927  -3.0960  -2.1410
    -2.0700  -1.9040  -1.5589  -1.2988   1.4632   2.8062   3.1283   5.6075
     7.0390   7.5630

          k =-0.1667-0.4811 0.1017 (  4448 PWs)   bands (ev):

  -121.8616-120.9071 -77.1452 -76.1294 -75.6999 -75.6999 -74.8386 -74.8386
    -9.4546  -7.1014  -4.4288  -4.3364  -3.9036  -3.2035  -3.1041  -2.1344
    -2.0784  -1.9361  -1.5053  -1.1909   1.3334   2.3168   2.8159   5.7355
     6.6600   7.2205

          k =-0.1667-0.4811 0.2034 (  4455 PWs)   bands (ev):

  -121.8616-120.9071 -77.1453 -76.1295 -75.6999 -75.6999 -74.8386 -74.8386
    -9.4531  -7.1013  -4.4290  -4.3362  -3.9074  -3.2042  -3.1062  -2.1352
    -2.0768  -1.9230  -1.5057  -1.1948   1.2319   2.3235   2.8158   6.0459
     6.8445   7.1898

     highest occupied level (ev):     7.6931

!    total energy              =    -839.89053378 Ry
     estimated scf accuracy    <          5.9E-09 Ry

     The total energy is the sum of the following terms:
     one-electron contribution =    -844.90540491 Ry
     hartree contribution      =     423.89174108 Ry
     xc contribution           =     -82.69196674 Ry
     ewald contribution        =    -336.18490321 Ry

     convergence has been achieved in  11 iterations

     Writing all to output data dir ./SCRATCH/zns_w.save/

     init_run     :      2.33s CPU      2.41s WALL (       1 calls)
     electrons    :    104.28s CPU    105.04s WALL (       1 calls)

     Called by init_run:
     wfcinit      :      2.22s CPU      2.26s WALL (       1 calls)
     potinit      :      0.05s CPU      0.08s WALL (       1 calls)
     hinit0       :      0.05s CPU      0.04s WALL (       1 calls)

     Called by electrons:
     c_bands      :     96.02s CPU     96.73s WALL (      11 calls)
     sum_band     :      7.88s CPU      7.91s WALL (      11 calls)
     v_of_rho     :      0.33s CPU      0.39s WALL (      12 calls)
     mix_rho      :      0.06s CPU      0.05s WALL (      11 calls)

     Called by c_bands:
     init_us_2    :      0.53s CPU      0.83s WALL (     782 calls)
     init_us_2:cp :      0.53s CPU      0.82s WALL (     782 calls)
     cegterg      :     94.08s CPU     94.74s WALL (     374 calls)

     Called by *egterg:
     cdiaghg      :      1.52s CPU      1.48s WALL (    2531 calls)
     h_psi        :     68.66s CPU     68.56s WALL (    2565 calls)
     g_psi        :      0.34s CPU      0.29s WALL (    2157 calls)

     Called by h_psi:
     h_psi:calbec :      8.52s CPU      8.57s WALL (    2565 calls)
     vloc_psi     :     53.48s CPU     53.60s WALL (    2565 calls)
     add_vuspsi   :      6.44s CPU      6.01s WALL (    2565 calls)

     General routines
     calbec       :      8.52s CPU      8.56s WALL (    2565 calls)
     fft          :      0.17s CPU      0.15s WALL (     119 calls)
     ffts         :      0.00s CPU      0.01s WALL (      11 calls)
     fftw         :     55.42s CPU     55.31s WALL (   78788 calls)


     PWSCF        :   1m46.62s CPU   1m47.52s WALL


   This run was terminated on:   9:34: 4  10Jun2024            

=------------------------------------------------------------------------------=
   JOB DONE.
=------------------------------------------------------------------------------=
