
     Program PWSCF v.7.2 starts on 10Jun2024 at  9:29:48 

     This program is part of the open-source Quantum ESPRESSO suite
     for quantum simulation of materials; please cite
         "P. Giannozzi et al., J. Phys.:Condens. Matter 21 395502 (2009);
         "P. Giannozzi et al., J. Phys.:Condens. Matter 29 465901 (2017);
         "P. Giannozzi et al., J. Chem. Phys. 152 154105 (2020);
          URL http://www.quantum-espresso.org", 
     in publications or presentations arising from this work. More details at
     http://www.quantum-espresso.org/quote

     Serial version
     9879 MiB available memory on the printing compute node when the environment starts

     Waiting for input...
     Reading input from standard input

     Current dimensions of program PWSCF are:
     Max number of different atomic species (ntypx) = 10
     Max number of k-points (npk) =  40000
     Max angular momentum in pseudopotentials (lmaxx) =  4


     G-vector sticks info
     --------------------
     sticks:   dense  smooth     PW     G-vecs:    dense   smooth      PW
     Sum         595     595    187                19399    19399    3213

     Using Slab Decomposition



     bravais-lattice index     =            4
     lattice parameter (alat)  =       7.3631  a.u.
     unit-cell volume          =     566.5376 (a.u.)^3
     number of atoms/cell      =            4
     number of atomic types    =            2
     number of electrons       =        52.00
     number of Kohn-Sham states=           26
     kinetic-energy cutoff     =      40.0000  Ry
     charge density cutoff     =     160.0000  Ry
     scf convergence threshold =      1.0E-08
     mixing beta               =       0.7000
     number of iterations used =            8  plain     mixing
     Exchange-correlation= PBE
                           (   1   4   3   4   0   0   0)

     celldm(1)=   7.363128  celldm(2)=   0.000000  celldm(3)=   1.638743
     celldm(4)=   0.000000  celldm(5)=   0.000000  celldm(6)=   0.000000

     crystal axes: (cart. coord. in units of alat)
               a(1) = (   1.000000   0.000000   0.000000 )  
               a(2) = (  -0.500000   0.866025   0.000000 )  
               a(3) = (   0.000000   0.000000   1.638743 )  

     reciprocal axes: (cart. coord. in units 2 pi/alat)
               b(1) = (  1.000000  0.577350 -0.000000 )  
               b(2) = (  0.000000  1.154701  0.000000 )  
               b(3) = (  0.000000 -0.000000  0.610224 )  


     PseudoPot. # 1 for Zn read from file:
     /home/paolo/project_labqsm/pseudopotentials/Zn_ONCV_PBE-1.2.upf
     MD5 check sum: 732f41c0cd6489a4b50a33b4ec99a2d3
     Pseudo is Norm-conserving, Zval = 20.0
     Generated using ONCVPSP code by D. R. Hamann
     Using radial grid of  602 points,  6 beta functions with: 
                l(1) =   0
                l(2) =   0
                l(3) =   1
                l(4) =   1
                l(5) =   2
                l(6) =   2

     PseudoPot. # 2 for S  read from file:
     /home/paolo/project_labqsm/pseudopotentials/S_ONCV_PBE-1.2.upf
     MD5 check sum: f9d020296ee6110346977bfd66d424f6
     Pseudo is Norm-conserving, Zval =  6.0
     Generated using ONCVPSP code by D. R. Hamann
     Using radial grid of  602 points,  4 beta functions with: 
                l(1) =   0
                l(2) =   0
                l(3) =   1
                l(4) =   1

     atomic species   valence    mass     pseudopotential
        Zn            20.00    65.38000     Zn( 1.00)
        S              6.00    32.06000     S ( 1.00)

      6 Sym. Ops. (no inversion) found



   Cartesian axes

     site n.     atom                  positions (alat units)
         1           Zn  tau(   1) = (   0.0000000   0.0000000   0.0000000  )
         2           S   tau(   2) = (   0.0000000   0.0000000   0.3723729  )
         3           Zn  tau(   3) = (   0.0000000   0.5773503   0.5000000  )
         4           S   tau(   4) = (   0.0000000   0.5773503   0.8723729  )

     number of k points=    34
                       cart. coord. in units 2pi/alat
        k(    1) = (   0.0000000   0.0000000   0.0000000), wk =   0.0092593
        k(    2) = (   0.0000000   0.0000000   0.1017039), wk =   0.0185185
        k(    3) = (   0.0000000   0.0000000   0.2034079), wk =   0.0185185
        k(    4) = (   0.0000000   0.0000000  -0.3051118), wk =   0.0092593
        k(    5) = (   0.0000000   0.1924501   0.0000000), wk =   0.0555556
        k(    6) = (   0.0000000   0.1924501   0.1017039), wk =   0.0555556
        k(    7) = (   0.0000000   0.1924501   0.2034079), wk =   0.0555556
        k(    8) = (   0.0000000   0.1924501  -0.3051118), wk =   0.0555556
        k(    9) = (   0.0000000   0.3849002   0.0000000), wk =   0.0555556
        k(   10) = (   0.0000000   0.3849002   0.1017039), wk =   0.0555556
        k(   11) = (   0.0000000   0.3849002   0.2034079), wk =   0.0555556
        k(   12) = (   0.0000000   0.3849002  -0.3051118), wk =   0.0555556
        k(   13) = (   0.0000000  -0.5773503   0.0000000), wk =   0.0277778
        k(   14) = (   0.0000000  -0.5773503   0.1017039), wk =   0.0555556
        k(   15) = (   0.0000000  -0.5773503   0.2034079), wk =   0.0555556
        k(   16) = (   0.0000000  -0.5773503  -0.3051118), wk =   0.0277778
        k(   17) = (   0.1666667   0.2886751   0.0000000), wk =   0.0555556
        k(   18) = (   0.1666667   0.2886751   0.1017039), wk =   0.1111111
        k(   19) = (   0.1666667   0.2886751   0.2034079), wk =   0.1111111
        k(   20) = (   0.1666667   0.2886751  -0.3051118), wk =   0.0555556
        k(   21) = (   0.1666667   0.4811252   0.0000000), wk =   0.1111111
        k(   22) = (   0.1666667   0.4811252   0.1017039), wk =   0.1111111
        k(   23) = (   0.1666667   0.4811252   0.2034079), wk =   0.1111111
        k(   24) = (   0.1666667   0.4811252  -0.3051118), wk =   0.1111111
        k(   25) = (   0.3333333   0.5773503   0.0000000), wk =   0.0185185
        k(   26) = (   0.3333333   0.5773503   0.1017039), wk =   0.0370370
        k(   27) = (   0.3333333   0.5773503   0.2034079), wk =   0.0370370
        k(   28) = (   0.3333333   0.5773503  -0.3051118), wk =   0.0185185
        k(   29) = (   0.0000000  -0.1924501   0.1017039), wk =   0.0555556
        k(   30) = (   0.0000000  -0.1924501   0.2034079), wk =   0.0555556
        k(   31) = (   0.0000000  -0.3849002   0.1017039), wk =   0.0555556
        k(   32) = (   0.0000000  -0.3849002   0.2034079), wk =   0.0555556
        k(   33) = (  -0.1666667  -0.4811252   0.1017039), wk =   0.1111111
        k(   34) = (  -0.1666667  -0.4811252   0.2034079), wk =   0.1111111

     Dense  grid:    19399 G-vectors     FFT dimensions: (  30,  30,  50)

     Estimated max dynamical RAM per process >      53.29 MB

     Initial potential from superposition of free atoms

     starting charge      51.9339, renormalised to      52.0000
     Starting wfcs are random

     total cpu time spent up to now is        1.4 secs

     Self-consistent Calculation

     iteration #  1     ecut=    40.00 Ry     beta= 0.70
     Davidson diagonalization with overlap
     ethr =  1.00E-02,  avg # of iterations = 14.2

     total cpu time spent up to now is       16.8 secs

     total energy              =    -836.31753964 Ry
     estimated scf accuracy    <       2.34827537 Ry

     iteration #  2     ecut=    40.00 Ry     beta= 0.70
     Davidson diagonalization with overlap
     ethr =  4.52E-03,  avg # of iterations =  5.7

     total cpu time spent up to now is       21.7 secs

     total energy              =    -835.77336188 Ry
     estimated scf accuracy    <       8.89686219 Ry

     iteration #  3     ecut=    40.00 Ry     beta= 0.70
     Davidson diagonalization with overlap
     ethr =  4.52E-03,  avg # of iterations =  5.6

     total cpu time spent up to now is       25.8 secs

     total energy              =    -837.50968309 Ry
     estimated scf accuracy    <       0.81979602 Ry

     iteration #  4     ecut=    40.00 Ry     beta= 0.70
     Davidson diagonalization with overlap
     ethr =  1.58E-03,  avg # of iterations =  2.0

     total cpu time spent up to now is       29.0 secs

     total energy              =    -837.55390883 Ry
     estimated scf accuracy    <       0.14611562 Ry

     iteration #  5     ecut=    40.00 Ry     beta= 0.70
     Davidson diagonalization with overlap
     ethr =  2.81E-04,  avg # of iterations =  4.1

     total cpu time spent up to now is       32.4 secs

     total energy              =    -837.56622006 Ry
     estimated scf accuracy    <       0.01562562 Ry

     iteration #  6     ecut=    40.00 Ry     beta= 0.70
     Davidson diagonalization with overlap
     ethr =  3.00E-05,  avg # of iterations =  4.5

     total cpu time spent up to now is       35.9 secs

     total energy              =    -837.56904832 Ry
     estimated scf accuracy    <       0.00185898 Ry

     iteration #  7     ecut=    40.00 Ry     beta= 0.70
     Davidson diagonalization with overlap
     ethr =  3.57E-06,  avg # of iterations =  4.6

     total cpu time spent up to now is       39.7 secs

     total energy              =    -837.56956968 Ry
     estimated scf accuracy    <       0.00057498 Ry

     iteration #  8     ecut=    40.00 Ry     beta= 0.70
     Davidson diagonalization with overlap
     ethr =  1.11E-06,  avg # of iterations =  3.1

     total cpu time spent up to now is       43.1 secs

     total energy              =    -837.56966321 Ry
     estimated scf accuracy    <       0.00001470 Ry

     iteration #  9     ecut=    40.00 Ry     beta= 0.70
     Davidson diagonalization with overlap
     ethr =  2.83E-08,  avg # of iterations =  5.2

     total cpu time spent up to now is       47.3 secs

     total energy              =    -837.56966877 Ry
     estimated scf accuracy    <       0.00000500 Ry

     iteration # 10     ecut=    40.00 Ry     beta= 0.70
     Davidson diagonalization with overlap
     ethr =  9.61E-09,  avg # of iterations =  3.4

     total cpu time spent up to now is       50.6 secs

     total energy              =    -837.56966944 Ry
     estimated scf accuracy    <       0.00000014 Ry

     iteration # 11     ecut=    40.00 Ry     beta= 0.70
     Davidson diagonalization with overlap
     ethr =  2.67E-10,  avg # of iterations =  5.6

     total cpu time spent up to now is       55.4 secs

     total energy              =    -837.56966949 Ry
     estimated scf accuracy    <       0.00000015 Ry

     iteration # 12     ecut=    40.00 Ry     beta= 0.70
     Davidson diagonalization with overlap
     ethr =  2.67E-10,  avg # of iterations =  3.1

     total cpu time spent up to now is       59.0 secs

     End of self-consistent calculation

          k = 0.0000 0.0000 0.0000 (  2431 PWs)   bands (ev):

  -126.7600-125.8513 -80.5291 -79.5553 -79.0860 -79.0860 -78.2719 -78.2719
   -10.1717  -7.7749  -5.0510  -5.0510  -4.9571  -3.8891  -3.8891  -2.8147
    -2.8147  -2.4359  -2.4359  -2.0615   1.7393   4.0683   4.0683   6.2291
     7.5031   7.5031

          k = 0.0000 0.0000 0.1017 (  2430 PWs)   bands (ev):

  -126.7601-125.8513 -80.5209 -79.5468 -79.0952 -79.0952 -78.2808 -78.2808
   -10.1654  -7.7663  -5.0378  -5.0378  -4.9551  -3.8816  -3.8816  -2.8579
    -2.8579  -2.4636  -2.4636  -2.0822   1.9048   4.0638   4.0638   5.8584
     7.4878   7.4878

          k = 0.0000 0.0000 0.2034 (  2442 PWs)   bands (ev):

  -126.7601-125.8513 -80.5380 -79.5642 -79.1054 -79.1054 -78.2914 -78.2914
   -10.1793  -7.8216  -5.0506  -5.0506  -4.9968  -3.8968  -3.8968  -2.8901
    -2.8901  -2.5098  -2.5098  -2.2196   2.2729   4.0629   4.0629   5.2012
     7.4546   7.4546

          k = 0.0000 0.0000-0.3051 (  2460 PWs)   bands (ev):

  -126.7601-125.8514 -80.5598 -79.5862 -79.1147 -79.1147 -78.3009 -78.3009
   -10.1886  -7.8414  -5.0990  -5.0990  -5.0454  -3.9607  -3.9607  -2.9180
    -2.9180  -2.5402  -2.5402  -2.2676   2.4951   4.0490   4.0490   4.8691
     7.4272   7.4272

          k = 0.0000 0.1925 0.0000 (  2419 PWs)   bands (ev):

  -126.7600-125.8513 -80.5215 -79.5472 -79.0815 -79.0769 -78.2670 -78.2630
   -10.0995  -7.7447  -5.0891  -5.0244  -4.8436  -3.8955  -3.8132  -2.8266
    -2.7547  -2.4708  -2.3404  -1.8991   1.9205   2.9498   3.7104   6.3501
     6.9570   7.6555

          k = 0.0000 0.1925 0.1017 (  2429 PWs)   bands (ev):

  -126.7600-125.8513 -80.5285 -79.5542 -79.0889 -79.0881 -78.2750 -78.2738
   -10.0996  -7.7531  -5.1175  -5.0417  -4.8487  -3.9175  -3.8669  -2.8508
    -2.8012  -2.4828  -2.3945  -1.9414   2.0320   2.9414   3.7084   6.3175
     6.8124   7.6172

          k = 0.0000 0.1925 0.2034 (  2434 PWs)   bands (ev):

  -126.7601-125.8513 -80.5314 -79.5576 -79.1002 -79.0900 -78.2863 -78.2756
   -10.1006  -7.7771  -5.0945  -5.0653  -4.8453  -3.9078  -3.8982  -2.8785
    -2.8290  -2.5077  -2.4123  -2.0238   2.2742   2.9404   3.7147   5.8946
     6.9223   7.5590

          k = 0.0000 0.1925-0.3051 (  2438 PWs)   bands (ev):

  -126.7601-125.8513 -80.5387 -79.5650 -79.0999 -79.0942 -78.2860 -78.2794
   -10.1073  -7.7995  -5.1045  -5.0642  -4.8621  -3.9093  -3.9023  -2.8714
    -2.8505  -2.4943  -2.4437  -2.0649   2.4040   2.9484   3.7151   5.6231
     7.0134   7.5398

          k = 0.0000 0.3849 0.0000 (  2417 PWs)   bands (ev):

  -126.7601-125.8513 -80.5210 -79.5468 -79.0852 -79.0773 -78.2707 -78.2632
    -9.9504  -7.7136  -5.1249  -5.0715  -4.5759  -3.9404  -3.8319  -2.8068
    -2.7762  -2.4144  -2.2909  -1.7864   1.5336   2.4324   3.1057   5.6021
     6.6809   7.7557

          k = 0.0000 0.3849 0.1017 (  2420 PWs)   bands (ev):

  -126.7601-125.8513 -80.5239 -79.5492 -79.0881 -79.0807 -78.2737 -78.2660
    -9.9547  -7.7214  -5.1301  -5.0663  -4.5951  -3.9338  -3.8349  -2.8546
    -2.7660  -2.4392  -2.2708  -1.8091   1.4652   2.4895   3.1148   5.8980
     6.5518   7.7019

          k = 0.0000 0.3849 0.2034 (  2424 PWs)   bands (ev):

  -126.7601-125.8513 -80.5376 -79.5637 -79.0850 -79.0805 -78.2709 -78.2663
    -9.9583  -7.7389  -5.1537  -5.0474  -4.5868  -4.0148  -3.8936  -2.8885
    -2.6857  -2.4491  -2.2206  -1.8644   1.3525   2.6132   3.1235   6.1900
     6.5082   7.6212

          k = 0.0000 0.3849-0.3051 (  2428 PWs)   bands (ev):

  -126.7601-125.8513 -80.5387 -79.5650 -79.0911 -79.0863 -78.2771 -78.2722
    -9.9639  -7.7585  -5.1223  -5.0613  -4.6010  -3.9779  -3.9105  -2.9087
    -2.7216  -2.4682  -2.2642  -1.8988   1.3198   2.6766   3.1253   6.0137
     6.7284   7.5798

          k = 0.0000-0.5774 0.0000 (  2412 PWs)   bands (ev):

  -126.7601-125.8513 -80.5314 -79.5569 -79.0874 -79.0628 -78.2727 -78.2491
    -9.8807  -7.7059  -5.1598  -5.0773  -4.4501  -4.0163  -3.8042  -2.8407
    -2.6723  -2.2913  -2.1505  -1.9307   1.0965   2.6333   2.8507   5.6888
     5.8967   7.7587

          k = 0.0000-0.5774 0.1017 (  2406 PWs)   bands (ev):

  -126.7601-125.8513 -80.5206 -79.5467 -79.0842 -79.0632 -78.2697 -78.2492
    -9.8800  -7.7092  -5.1264  -5.0279  -4.4447  -3.9638  -3.7835  -2.8799
    -2.6508  -2.2978  -2.1369  -1.9421   1.0506   2.6306   2.8632   5.6764
     6.1959   7.7171

          k = 0.0000-0.5774 0.2034 (  2418 PWs)   bands (ev):

  -126.7601-125.8513 -80.5359 -79.5625 -79.0901 -79.0706 -78.2759 -78.2565
    -9.8811  -7.7162  -5.1533  -5.0753  -4.4600  -3.9838  -3.9022  -2.8566
    -2.6987  -2.2983  -2.1977  -1.9129   0.9420   2.6016   2.8600   5.9328
     6.5086   7.6013

          k = 0.0000-0.5774-0.3051 (  2424 PWs)   bands (ev):

  -126.7601-125.8513 -80.5374 -79.5648 -79.1080 -79.0670 -78.2937 -78.2541
    -9.8842  -7.7233  -5.1353  -5.1035  -4.4624  -3.9741  -3.9738  -2.8679
    -2.7414  -2.3034  -2.2312  -1.9240   0.8996   2.5845   2.8507   6.2982
     6.4057   7.5463

          k = 0.1667 0.2887 0.0000 (  2423 PWs)   bands (ev):

  -126.7601-125.8513 -80.5169 -79.5428 -79.0946 -79.0857 -78.2804 -78.2714
    -9.9854  -7.7161  -5.1025  -5.0819  -4.6340  -3.9041  -3.8803  -2.8542
    -2.8130  -2.4819  -2.3244  -1.7904   1.9300   2.3493   2.9266   5.9444
     6.9399   7.5092

          k = 0.1667 0.2887 0.1017 (  2426 PWs)   bands (ev):

  -126.7601-125.8513 -80.5278 -79.5539 -79.0904 -79.0882 -78.2763 -78.2741
    -9.9968  -7.7383  -5.1324  -5.0539  -4.6657  -3.9481  -3.8573  -2.8498
    -2.7961  -2.4889  -2.3122  -1.8258   1.8484   2.4563   2.9472   5.9342
     7.0112   7.4628

          k = 0.1667 0.2887 0.2034 (  2434 PWs)   bands (ev):

  -126.7601-125.8513 -80.5399 -79.5663 -79.0951 -79.0917 -78.2806 -78.2776
   -10.0043  -7.7623  -5.1438  -5.0748  -4.6885  -3.9858  -3.8796  -2.8873
    -2.7754  -2.5195  -2.3004  -1.8857   1.7499   2.6048   2.9912   6.0382
     6.9824   7.3639

          k = 0.1667 0.2887-0.3051 (  2418 PWs)   bands (ev):

  -126.7600-125.8513 -80.5316 -79.5580 -79.0849 -79.0715 -78.2709 -78.2575
    -9.9962  -7.7581  -5.0860  -5.0451  -4.6598  -3.9283  -3.8515  -2.8418
    -2.7078  -2.4929  -2.2462  -1.8866   1.7344   2.6656   3.0279   6.2019
     6.8334   7.3215

          k = 0.1667 0.4811 0.0000 (  2410 PWs)   bands (ev):

  -126.7601-125.8513 -80.5261 -79.5525 -79.0821 -79.0706 -78.2681 -78.2567
    -9.8772  -7.7020  -5.1450  -5.0683  -4.4245  -3.9833  -3.8476  -2.8358
    -2.6935  -2.3712  -2.1596  -1.8095   1.3140   2.2943   2.6460   5.7157
     6.4072   7.3376

          k = 0.1667 0.4811 0.1017 (  2411 PWs)   bands (ev):

  -126.7601-125.8513 -80.5289 -79.5551 -79.0865 -79.0653 -78.2725 -78.2514
    -9.8789  -7.7050  -5.1300  -5.0806  -4.4444  -3.9679  -3.8659  -2.8318
    -2.6884  -2.3673  -2.1595  -1.8100   1.2556   2.2844   2.6550   5.9304
     6.4865   7.2317

          k = 0.1667 0.4811 0.2034 (  2417 PWs)   bands (ev):

  -126.7601-125.8513 -80.5350 -79.5615 -79.0894 -79.0687 -78.2753 -78.2551
    -9.8837  -7.7163  -5.1282  -5.0913  -4.4516  -3.9826  -3.8909  -2.8348
    -2.7064  -2.3913  -2.1703  -1.8256   1.1554   2.2880   2.6545   6.2884
     6.7216   7.1047

          k = 0.1667 0.4811-0.3051 (  2416 PWs)   bands (ev):

  -126.7601-125.8513 -80.5315 -79.5582 -79.0912 -79.0669 -78.2770 -78.2535
    -9.8849  -7.7217  -5.1430  -5.0442  -4.4493  -3.9942  -3.8544  -2.8518
    -2.6965  -2.3944  -2.1655  -1.8402   1.1106   2.2986   2.6524   6.4278
     6.7769   7.1856

          k = 0.3333 0.5774 0.0000 (  2406 PWs)   bands (ev):

  -126.7601-125.8513 -80.5373 -79.5637 -79.0701 -79.0698 -78.2564 -78.2560
    -9.8350  -7.6860  -5.1626  -5.1261  -4.3294  -4.0092  -3.9149  -2.7209
    -2.7133  -2.3225  -2.1733  -1.7160   1.4926   1.5605   2.7242   5.8882
     6.3518   6.9340

          k = 0.3333 0.5774 0.1017 (  2409 PWs)   bands (ev):

  -126.7601-125.8513 -80.5315 -79.5580 -79.0734 -79.0729 -78.2596 -78.2592
    -9.8308  -7.6806  -5.1634  -5.1153  -4.3205  -4.0022  -3.9015  -2.7396
    -2.7352  -2.3193  -2.1784  -1.7378   1.4330   1.5753   2.6907   6.0786
     6.5204   6.8031

          k = 0.3333 0.5774 0.2034 (  2394 PWs)   bands (ev):

  -126.7600-125.8513 -80.5229 -79.5499 -79.0585 -79.0571 -78.2443 -78.2438
    -9.8396  -7.6967  -5.0891  -5.0395  -4.3504  -3.9221  -3.8243  -2.7191
    -2.6946  -2.3230  -2.1028  -1.6885   1.3303   1.6272   2.6310   6.5107
     6.5977   6.9319

          k = 0.3333 0.5774-0.3051 (  2400 PWs)   bands (ev):

  -126.7600-125.8513 -80.5183 -79.5454 -79.0670 -79.0659 -78.2529 -78.2525
    -9.8307  -7.6812  -5.1075  -5.0585  -4.3264  -3.9518  -3.8523  -2.7513
    -2.7241  -2.3078  -2.1388  -1.7136   1.2720   1.6342   2.5990   6.4900
     6.7543   7.1908

          k = 0.0000-0.1925 0.1017 (  2429 PWs)   bands (ev):

  -126.7600-125.8513 -80.5284 -79.5546 -79.0888 -79.0880 -78.2750 -78.2738
   -10.1001  -7.7531  -5.1050  -5.0459  -4.8530  -3.9264  -3.8689  -2.8498
    -2.8015  -2.4970  -2.3839  -1.9297   2.0272   2.9662   3.7028   5.9956
     7.2018   7.6274

          k = 0.0000-0.1925 0.2034 (  2434 PWs)   bands (ev):

  -126.7601-125.8513 -80.5313 -79.5575 -79.1001 -79.0903 -78.2862 -78.2751
   -10.1011  -7.7765  -5.1004  -5.0590  -4.8519  -3.9004  -3.8858  -2.8780
    -2.8303  -2.5205  -2.4148  -2.0194   2.2640   2.9785   3.7112   5.6885
     7.1539   7.5698

          k = 0.0000-0.3849 0.1017 (  2420 PWs)   bands (ev):

  -126.7601-125.8513 -80.5235 -79.5499 -79.0879 -79.0801 -78.2740 -78.2663
    -9.9543  -7.7226  -5.1262  -5.0530  -4.5902  -3.9348  -3.8681  -2.8692
    -2.7420  -2.4278  -2.2704  -1.8145   1.4765   2.5345   3.1049   5.4482
     6.9472   7.7212

          k = 0.0000-0.3849 0.2034 (  2424 PWs)   bands (ev):

  -126.7601-125.8513 -80.5377 -79.5640 -79.0847 -79.0804 -78.2708 -78.2665
    -9.9595  -7.7439  -5.1569  -5.0485  -4.5747  -3.9979  -3.9055  -2.8974
    -2.6805  -2.4563  -2.2124  -1.8719   1.3652   2.6544   3.1183   5.5985
     7.0251   7.6352

          k =-0.1667-0.4811 0.1017 (  2411 PWs)   bands (ev):

  -126.7601-125.8513 -80.5290 -79.5553 -79.0865 -79.0653 -78.2726 -78.2514
    -9.8787  -7.7056  -5.1351  -5.0863  -4.4371  -3.9627  -3.8678  -2.8436
    -2.6858  -2.3700  -2.1509  -1.8095   1.2660   2.2896   2.6564   5.7391
     6.6412   7.2779

          k =-0.1667-0.4811 0.2034 (  2417 PWs)   bands (ev):

  -126.7601-125.8513 -80.5351 -79.5617 -79.0893 -79.0688 -78.2753 -78.2549
    -9.8828  -7.7177  -5.1377  -5.0925  -4.4443  -3.9751  -3.8991  -2.8434
    -2.7035  -2.3820  -2.1656  -1.8274   1.1629   2.2900   2.6566   6.0517
     6.8416   7.2254

     highest occupied level (ev):     7.7587

!    total energy              =    -837.56966952 Ry
     estimated scf accuracy    <          2.6E-09 Ry

     The total energy is the sum of the following terms:
     one-electron contribution =    -835.22697956 Ry
     hartree contribution      =     415.69953021 Ry
     xc contribution           =     -81.85731704 Ry
     ewald contribution        =    -336.18490313 Ry

     convergence has been achieved in  12 iterations

     Writing all to output data dir ./SCRATCH/zns_w.save/

     init_run     :      1.20s CPU      1.33s WALL (       1 calls)
     electrons    :     57.03s CPU     57.64s WALL (       1 calls)

     Called by init_run:
     wfcinit      :      1.16s CPU      1.25s WALL (       1 calls)
     potinit      :      0.02s CPU      0.04s WALL (       1 calls)
     hinit0       :      0.03s CPU      0.03s WALL (       1 calls)

     Called by electrons:
     c_bands      :     52.69s CPU     53.22s WALL (      12 calls)
     sum_band     :      4.14s CPU      4.21s WALL (      12 calls)
     v_of_rho     :      0.16s CPU      0.20s WALL (      13 calls)
     mix_rho      :      0.03s CPU      0.03s WALL (      12 calls)

     Called by c_bands:
     init_us_2    :      0.41s CPU      0.51s WALL (     850 calls)
     init_us_2:cp :      0.41s CPU      0.51s WALL (     850 calls)
     cegterg      :     51.47s CPU     51.94s WALL (     408 calls)

     Called by *egterg:
     cdiaghg      :      1.48s CPU      1.51s WALL (    2490 calls)
     h_psi        :     34.84s CPU     35.61s WALL (    2524 calls)
     g_psi        :      0.27s CPU      0.17s WALL (    2082 calls)

     Called by h_psi:
     h_psi:calbec :      5.11s CPU      5.08s WALL (    2524 calls)
     vloc_psi     :     26.20s CPU     26.71s WALL (    2524 calls)
     add_vuspsi   :      3.39s CPU      3.58s WALL (    2524 calls)

     General routines
     calbec       :      5.11s CPU      5.07s WALL (    2524 calls)
     fft          :      0.06s CPU      0.07s WALL (     129 calls)
     ffts         :      0.03s CPU      0.01s WALL (      12 calls)
     fftw         :     27.09s CPU     27.57s WALL (   83326 calls)


     PWSCF        :     58.27s CPU     59.05s WALL


   This run was terminated on:   9:30:47  10Jun2024            

=------------------------------------------------------------------------------=
   JOB DONE.
=------------------------------------------------------------------------------=
