
     Program PWSCF v.7.2 starts on 10Jun2024 at  9:34: 4 

     This program is part of the open-source Quantum ESPRESSO suite
     for quantum simulation of materials; please cite
         "P. Giannozzi et al., J. Phys.:Condens. Matter 21 395502 (2009);
         "P. Giannozzi et al., J. Phys.:Condens. Matter 29 465901 (2017);
         "P. Giannozzi et al., J. Chem. Phys. 152 154105 (2020);
          URL http://www.quantum-espresso.org", 
     in publications or presentations arising from this work. More details at
     http://www.quantum-espresso.org/quote

     Serial version
     9885 MiB available memory on the printing compute node when the environment starts

     Waiting for input...
     Reading input from standard input

     Current dimensions of program PWSCF are:
     Max number of different atomic species (ntypx) = 10
     Max number of k-points (npk) =  40000
     Max angular momentum in pseudopotentials (lmaxx) =  4


     G-vector sticks info
     --------------------
     sticks:   dense  smooth     PW     G-vecs:    dense   smooth      PW
     Sum        1039    1039    301                44855    44855    6971

     Using Slab Decomposition



     bravais-lattice index     =            4
     lattice parameter (alat)  =       7.3631  a.u.
     unit-cell volume          =     566.5376 (a.u.)^3
     number of atoms/cell      =            4
     number of atomic types    =            2
     number of electrons       =        52.00
     number of Kohn-Sham states=           26
     kinetic-energy cutoff     =      70.0000  Ry
     charge density cutoff     =     280.0000  Ry
     scf convergence threshold =      1.0E-08
     mixing beta               =       0.7000
     number of iterations used =            8  plain     mixing
     Exchange-correlation= PBE
                           (   1   4   3   4   0   0   0)

     celldm(1)=   7.363128  celldm(2)=   0.000000  celldm(3)=   1.638743
     celldm(4)=   0.000000  celldm(5)=   0.000000  celldm(6)=   0.000000

     crystal axes: (cart. coord. in units of alat)
               a(1) = (   1.000000   0.000000   0.000000 )  
               a(2) = (  -0.500000   0.866025   0.000000 )  
               a(3) = (   0.000000   0.000000   1.638743 )  

     reciprocal axes: (cart. coord. in units 2 pi/alat)
               b(1) = (  1.000000  0.577350 -0.000000 )  
               b(2) = (  0.000000  1.154701  0.000000 )  
               b(3) = (  0.000000 -0.000000  0.610224 )  


     PseudoPot. # 1 for Zn read from file:
     /home/paolo/project_labqsm/pseudopotentials/Zn_ONCV_PBE-1.2.upf
     MD5 check sum: 732f41c0cd6489a4b50a33b4ec99a2d3
     Pseudo is Norm-conserving, Zval = 20.0
     Generated using ONCVPSP code by D. R. Hamann
     Using radial grid of  602 points,  6 beta functions with: 
                l(1) =   0
                l(2) =   0
                l(3) =   1
                l(4) =   1
                l(5) =   2
                l(6) =   2

     PseudoPot. # 2 for S  read from file:
     /home/paolo/project_labqsm/pseudopotentials/S_ONCV_PBE-1.2.upf
     MD5 check sum: f9d020296ee6110346977bfd66d424f6
     Pseudo is Norm-conserving, Zval =  6.0
     Generated using ONCVPSP code by D. R. Hamann
     Using radial grid of  602 points,  4 beta functions with: 
                l(1) =   0
                l(2) =   0
                l(3) =   1
                l(4) =   1

     atomic species   valence    mass     pseudopotential
        Zn            20.00    65.38000     Zn( 1.00)
        S              6.00    32.06000     S ( 1.00)

      6 Sym. Ops. (no inversion) found



   Cartesian axes

     site n.     atom                  positions (alat units)
         1           Zn  tau(   1) = (   0.0000000   0.0000000   0.0000000  )
         2           S   tau(   2) = (   0.0000000   0.0000000   0.3723729  )
         3           Zn  tau(   3) = (   0.0000000   0.5773503   0.5000000  )
         4           S   tau(   4) = (   0.0000000   0.5773503   0.8723729  )

     number of k points=    34
                       cart. coord. in units 2pi/alat
        k(    1) = (   0.0000000   0.0000000   0.0000000), wk =   0.0092593
        k(    2) = (   0.0000000   0.0000000   0.1017039), wk =   0.0185185
        k(    3) = (   0.0000000   0.0000000   0.2034079), wk =   0.0185185
        k(    4) = (   0.0000000   0.0000000  -0.3051118), wk =   0.0092593
        k(    5) = (   0.0000000   0.1924501   0.0000000), wk =   0.0555556
        k(    6) = (   0.0000000   0.1924501   0.1017039), wk =   0.0555556
        k(    7) = (   0.0000000   0.1924501   0.2034079), wk =   0.0555556
        k(    8) = (   0.0000000   0.1924501  -0.3051118), wk =   0.0555556
        k(    9) = (   0.0000000   0.3849002   0.0000000), wk =   0.0555556
        k(   10) = (   0.0000000   0.3849002   0.1017039), wk =   0.0555556
        k(   11) = (   0.0000000   0.3849002   0.2034079), wk =   0.0555556
        k(   12) = (   0.0000000   0.3849002  -0.3051118), wk =   0.0555556
        k(   13) = (   0.0000000  -0.5773503   0.0000000), wk =   0.0277778
        k(   14) = (   0.0000000  -0.5773503   0.1017039), wk =   0.0555556
        k(   15) = (   0.0000000  -0.5773503   0.2034079), wk =   0.0555556
        k(   16) = (   0.0000000  -0.5773503  -0.3051118), wk =   0.0277778
        k(   17) = (   0.1666667   0.2886751   0.0000000), wk =   0.0555556
        k(   18) = (   0.1666667   0.2886751   0.1017039), wk =   0.1111111
        k(   19) = (   0.1666667   0.2886751   0.2034079), wk =   0.1111111
        k(   20) = (   0.1666667   0.2886751  -0.3051118), wk =   0.0555556
        k(   21) = (   0.1666667   0.4811252   0.0000000), wk =   0.1111111
        k(   22) = (   0.1666667   0.4811252   0.1017039), wk =   0.1111111
        k(   23) = (   0.1666667   0.4811252   0.2034079), wk =   0.1111111
        k(   24) = (   0.1666667   0.4811252  -0.3051118), wk =   0.1111111
        k(   25) = (   0.3333333   0.5773503   0.0000000), wk =   0.0185185
        k(   26) = (   0.3333333   0.5773503   0.1017039), wk =   0.0370370
        k(   27) = (   0.3333333   0.5773503   0.2034079), wk =   0.0370370
        k(   28) = (   0.3333333   0.5773503  -0.3051118), wk =   0.0185185
        k(   29) = (   0.0000000  -0.1924501   0.1017039), wk =   0.0555556
        k(   30) = (   0.0000000  -0.1924501   0.2034079), wk =   0.0555556
        k(   31) = (   0.0000000  -0.3849002   0.1017039), wk =   0.0555556
        k(   32) = (   0.0000000  -0.3849002   0.2034079), wk =   0.0555556
        k(   33) = (  -0.1666667  -0.4811252   0.1017039), wk =   0.1111111
        k(   34) = (  -0.1666667  -0.4811252   0.2034079), wk =   0.1111111

     Dense  grid:    44855 G-vectors     FFT dimensions: (  40,  40,  72)

     Estimated max dynamical RAM per process >     121.90 MB

     Initial potential from superposition of free atoms

     starting charge      51.9339, renormalised to      52.0000
     Starting wfcs are random

     total cpu time spent up to now is        3.1 secs

     Self-consistent Calculation

     iteration #  1     ecut=    70.00 Ry     beta= 0.70
     Davidson diagonalization with overlap
     ethr =  1.00E-02,  avg # of iterations = 15.2

     total cpu time spent up to now is       43.2 secs

     total energy              =    -839.21689545 Ry
     estimated scf accuracy    <       1.25095351 Ry

     iteration #  2     ecut=    70.00 Ry     beta= 0.70
     Davidson diagonalization with overlap
     ethr =  2.41E-03,  avg # of iterations =  8.2

     total cpu time spent up to now is       54.9 secs

     total energy              =    -838.60524841 Ry
     estimated scf accuracy    <       7.36677141 Ry

     iteration #  3     ecut=    70.00 Ry     beta= 0.70
     Davidson diagonalization with overlap
     ethr =  2.41E-03,  avg # of iterations =  6.4

     total cpu time spent up to now is       65.3 secs

     total energy              =    -839.87504979 Ry
     estimated scf accuracy    <       0.35544193 Ry

     iteration #  4     ecut=    70.00 Ry     beta= 0.70
     Davidson diagonalization with overlap
     ethr =  6.84E-04,  avg # of iterations =  2.0

     total cpu time spent up to now is       73.4 secs

     total energy              =    -839.88930647 Ry
     estimated scf accuracy    <       0.08601984 Ry

     iteration #  5     ecut=    70.00 Ry     beta= 0.70
     Davidson diagonalization with overlap
     ethr =  1.65E-04,  avg # of iterations =  3.9

     total cpu time spent up to now is       81.5 secs

     total energy              =    -839.89585466 Ry
     estimated scf accuracy    <       0.01096285 Ry

     iteration #  6     ecut=    70.00 Ry     beta= 0.70
     Davidson diagonalization with overlap
     ethr =  2.11E-05,  avg # of iterations =  4.6

     total cpu time spent up to now is       90.0 secs

     total energy              =    -839.89772672 Ry
     estimated scf accuracy    <       0.00105315 Ry

     iteration #  7     ecut=    70.00 Ry     beta= 0.70
     Davidson diagonalization with overlap
     ethr =  2.03E-06,  avg # of iterations =  4.8

     total cpu time spent up to now is       99.8 secs

     total energy              =    -839.89802810 Ry
     estimated scf accuracy    <       0.00028847 Ry

     iteration #  8     ecut=    70.00 Ry     beta= 0.70
     Davidson diagonalization with overlap
     ethr =  5.55E-07,  avg # of iterations =  3.8

     total cpu time spent up to now is      108.1 secs

     total energy              =    -839.89806088 Ry
     estimated scf accuracy    <       0.00001702 Ry

     iteration #  9     ecut=    70.00 Ry     beta= 0.70
     Davidson diagonalization with overlap
     ethr =  3.27E-08,  avg # of iterations =  5.0

     total cpu time spent up to now is      117.8 secs

     total energy              =    -839.89806633 Ry
     estimated scf accuracy    <       0.00000175 Ry

     iteration # 10     ecut=    70.00 Ry     beta= 0.70
     Davidson diagonalization with overlap
     ethr =  3.37E-09,  avg # of iterations =  4.3

     total cpu time spent up to now is      126.2 secs

     total energy              =    -839.89806657 Ry
     estimated scf accuracy    <       0.00000006 Ry

     iteration # 11     ecut=    70.00 Ry     beta= 0.70
     Davidson diagonalization with overlap
     ethr =  1.21E-10,  avg # of iterations =  4.9

     total cpu time spent up to now is      136.8 secs

     End of self-consistent calculation

          k = 0.0000 0.0000 0.0000 (  5613 PWs)   bands (ev):

  -121.8204-120.8645 -77.1164 -76.1000 -75.6734 -75.6734 -74.8110 -74.8110
    -9.7952  -7.1526  -4.3513  -4.2854  -4.2854  -3.0875  -3.0875  -2.0963
    -2.0963  -1.7309  -1.6899  -1.6899   1.8471   4.0560   4.0560   6.3620
     7.4484   7.4484

          k = 0.0000 0.0000 0.1017 (  5600 PWs)   bands (ev):

  -121.8204-120.8645 -77.1164 -76.1000 -75.6734 -75.6734 -74.8110 -74.8110
    -9.7928  -7.1559  -4.3534  -4.2854  -4.2854  -3.0880  -3.0880  -2.0960
    -2.0960  -1.7666  -1.6897  -1.6897   2.0112   4.0618   4.0618   5.9508
     7.4349   7.4349

          k = 0.0000 0.0000 0.2034 (  5570 PWs)   bands (ev):

  -121.8204-120.8645 -77.1164 -76.1000 -75.6734 -75.6734 -74.8110 -74.8110
    -9.7879  -7.1627  -4.3577  -4.2853  -4.2853  -3.0891  -3.0891  -2.0955
    -2.0955  -1.8334  -1.6892  -1.6892   2.3902   4.0734   4.0734   5.2887
     7.4080   7.4080

          k = 0.0000 0.0000-0.3051 (  5576 PWs)   bands (ev):

  -121.8204-120.8645 -77.1164 -76.1000 -75.6734 -75.6734 -74.8110 -74.8110
    -9.7855  -7.1662  -4.3599  -4.2853  -4.2853  -3.0897  -3.0897  -2.0952
    -2.0952  -1.8647  -1.6889  -1.6889   2.6256   4.0793   4.0793   4.9535
     7.3945   7.3945

          k = 0.0000 0.1925 0.0000 (  5563 PWs)   bands (ev):

  -121.8204-120.8645 -77.1164 -76.1000 -75.6734 -75.6734 -74.8110 -74.8110
    -9.7117  -7.1378  -4.3914  -4.2901  -4.1893  -3.1233  -3.0856  -2.1075
    -2.0845  -1.8382  -1.6457  -1.4821   2.0327   3.0117   3.6969   6.3493
     6.9962   7.5862

          k = 0.0000 0.1925 0.1017 (  5596 PWs)   bands (ev):

  -121.8204-120.8645 -77.1164 -76.1000 -75.6735 -75.6734 -74.8110 -74.8110
    -9.7097  -7.1404  -4.3927  -4.2900  -4.1902  -3.1237  -3.0864  -2.1078
    -2.0844  -1.8448  -1.6455  -1.5029   2.1445   3.0096   3.7052   6.3290
     6.8247   7.5546

          k = 0.0000 0.1925 0.2034 (  5599 PWs)   bands (ev):

  -121.8204-120.8645 -77.1164 -76.1000 -75.6735 -75.6734 -74.8110 -74.8110
    -9.7055  -7.1456  -4.3951  -4.2899  -4.1918  -3.1248  -3.0876  -2.1092
    -2.0839  -1.8597  -1.6450  -1.5397   2.3846   3.0245   3.7198   5.9195
     6.8874   7.5052

          k = 0.0000 0.1925-0.3051 (  5620 PWs)   bands (ev):

  -121.8204-120.8645 -77.1164 -76.1000 -75.6735 -75.6734 -74.8110 -74.8110
    -9.7034  -7.1482  -4.3962  -4.2899  -4.1927  -3.1254  -3.0882  -2.1104
    -2.0837  -1.8680  -1.6448  -1.5557   2.5105   3.0519   3.7260   5.6503
     6.9707   7.4871

          k = 0.0000 0.3849 0.0000 (  5613 PWs)   bands (ev):

  -121.8204-120.8645 -77.1164 -76.1000 -75.6735 -75.6735 -74.8111 -74.8110
    -9.5376  -7.1084  -4.4260  -4.2997  -4.0078  -3.1798  -3.0820  -2.1283
    -2.0610  -1.9110  -1.5491  -1.2597   1.6139   2.5806   3.1036   5.5965
     6.7217   7.6885

          k = 0.0000 0.3849 0.1017 (  5609 PWs)   bands (ev):

  -121.8204-120.8645 -77.1164 -76.1000 -75.6735 -75.6735 -74.8111 -74.8110
    -9.5363  -7.1093  -4.4266  -4.2995  -4.0092  -3.1800  -3.0829  -2.1286
    -2.0609  -1.9073  -1.5489  -1.2679   1.5472   2.6422   3.1133   5.8774
     6.6041   7.6380

          k = 0.0000 0.3849 0.2034 (  5616 PWs)   bands (ev):

  -121.8204-120.8645 -77.1164 -76.1000 -75.6735 -75.6735 -74.8111 -74.8110
    -9.5339  -7.1110  -4.4274  -4.2992  -4.0122  -3.1809  -3.0845  -2.1311
    -2.0607  -1.8983  -1.5486  -1.2878   1.4535   2.7650   3.1314   6.1857
     6.5384   7.5511

          k = 0.0000 0.3849-0.3051 (  5604 PWs)   bands (ev):

  -121.8204-120.8645 -77.1164 -76.1000 -75.6735 -75.6735 -74.8111 -74.8110
    -9.5326  -7.1118  -4.4276  -4.2991  -4.0138  -3.1815  -3.0852  -2.1331
    -2.0605  -1.8928  -1.5484  -1.2995   1.4214   2.8317   3.1397   6.0360
     6.7216   7.5140

          k = 0.0000-0.5774 0.0000 (  5606 PWs)   bands (ev):

  -121.8204-120.8645 -77.1164 -76.1000 -75.6735 -75.6735 -74.8111 -74.8110
    -9.4466  -7.0938  -4.4385  -4.3046  -3.8953  -3.2006  -3.0802  -2.1394
    -2.0492  -1.9286  -1.4959  -1.2320   1.1734   2.8011   2.8435   5.6961
     5.9253   7.6914

          k = 0.0000-0.5774 0.1017 (  5618 PWs)   bands (ev):

  -121.8204-120.8645 -77.1164 -76.1000 -75.6735 -75.6735 -74.8111 -74.8110
    -9.4459  -7.0937  -4.4386  -4.3044  -3.8973  -3.2012  -3.0811  -2.1404
    -2.0491  -1.9197  -1.4958  -1.2318   1.1151   2.7954   2.8530   5.6893
     6.2137   7.6378

          k = 0.0000-0.5774 0.2034 (  5608 PWs)   bands (ev):

  -121.8204-120.8645 -77.1164 -76.1000 -75.6735 -75.6735 -74.8111 -74.8110
    -9.4444  -7.0935  -4.4388  -4.3040  -3.9012  -3.2023  -3.0829  -2.1424
    -2.0490  -1.9019  -1.4956  -1.2313   1.0074   2.7700   2.8723   5.9526
     6.5274   7.5350

          k = 0.0000-0.5774-0.3051 (  5616 PWs)   bands (ev):

  -121.8204-120.8645 -77.1164 -76.1000 -75.6735 -75.6735 -74.8111 -74.8110
    -9.4437  -7.0934  -4.4389  -4.3038  -3.9032  -3.2029  -3.0837  -2.1433
    -2.0489  -1.8929  -1.4955  -1.2310   0.9572   2.7524   2.8821   6.3513
     6.3877   7.4855

          k = 0.1667 0.2887 0.0000 (  5590 PWs)   bands (ev):

  -121.8204-120.8645 -77.1164 -76.1000 -75.6735 -75.6734 -74.8111 -74.8110
    -9.5824  -7.1156  -4.4121  -4.3060  -4.0551  -3.1636  -3.0873  -2.1159
    -2.0746  -1.9005  -1.5695  -1.2966   2.0063   2.4874   2.9483   5.9213
     6.9892   7.4485

          k = 0.1667 0.2887 0.1017 (  5599 PWs)   bands (ev):

  -121.8204-120.8645 -77.1164 -76.1000 -75.6735 -75.6734 -74.8111 -74.8110
    -9.5809  -7.1169  -4.4127  -4.3059  -4.0564  -3.1640  -3.0882  -2.1169
    -2.0744  -1.8986  -1.5695  -1.3111   1.9395   2.5960   2.9706   5.9206
     7.0468   7.4017

          k = 0.1667 0.2887 0.2034 (  5603 PWs)   bands (ev):

  -121.8204-120.8645 -77.1164 -76.1000 -75.6735 -75.6734 -74.8111 -74.8110
    -9.5780  -7.1195  -4.4140  -4.3056  -4.0589  -3.1647  -3.0898  -2.1189
    -2.0742  -1.8945  -1.5695  -1.3396   1.8587   2.7401   3.0282   6.0372
     6.9811   7.3145

          k = 0.1667 0.2887-0.3051 (  5606 PWs)   bands (ev):

  -121.8204-120.8645 -77.1164 -76.1000 -75.6735 -75.6734 -74.8111 -74.8110
    -9.5765  -7.1208  -4.4146  -4.3055  -4.0602  -3.1651  -3.0906  -2.1199
    -2.0740  -1.8924  -1.5696  -1.3536   1.8310   2.7884   3.0634   6.2140
     6.7912   7.2656

          k = 0.1667 0.4811 0.0000 (  5595 PWs)   bands (ev):

  -121.8204-120.8645 -77.1164 -76.1000 -75.6735 -75.6735 -74.8111 -74.8110
    -9.4481  -7.0929  -4.4186  -4.3260  -3.8935  -3.1917  -3.0914  -2.1244
    -2.0701  -1.9361  -1.4949  -1.1790   1.3863   2.3184   2.8046   5.7127
     6.4319   7.2713

          k = 0.1667 0.4811 0.1017 (  5605 PWs)   bands (ev):

  -121.8204-120.8645 -77.1164 -76.1000 -75.6735 -75.6735 -74.8111 -74.8110
    -9.4474  -7.0929  -4.4188  -4.3259  -3.8954  -3.1920  -3.0925  -2.1244
    -2.0693  -1.9301  -1.4951  -1.1799   1.3280   2.3175   2.8109   5.9253
     6.5131   7.1711

          k = 0.1667 0.4811 0.2034 (  5608 PWs)   bands (ev):

  -121.8204-120.8645 -77.1164 -76.1000 -75.6735 -75.6735 -74.8111 -74.8110
    -9.4459  -7.0928  -4.4190  -4.3255  -3.8991  -3.1927  -3.0946  -2.1253
    -2.0676  -1.9168  -1.4955  -1.1837   1.2267   2.3245   2.8122   6.2850
     6.7286   7.0637

          k = 0.1667 0.4811-0.3051 (  5608 PWs)   bands (ev):

  -121.8204-120.8645 -77.1164 -76.1000 -75.6735 -75.6735 -74.8111 -74.8110
    -9.4451  -7.0927  -4.4191  -4.3254  -3.9010  -3.1932  -3.0956  -2.1260
    -2.0667  -1.9095  -1.4957  -1.1867   1.1829   2.3308   2.8087   6.4169
     6.7801   7.1413

          k = 0.3333 0.5774 0.0000 (  5586 PWs)   bands (ev):

  -121.8204-120.8645 -77.1164 -76.1000 -75.6735 -75.6735 -74.8111 -74.8111
    -9.4036  -7.0845  -4.3790  -4.3738  -3.8283  -3.1899  -3.1034  -2.1091
    -2.0953  -1.9453  -1.4844  -1.0943   1.5753   1.5811   2.8937   5.9151
     6.3557   6.8802

          k = 0.3333 0.5774 0.1017 (  5589 PWs)   bands (ev):

  -121.8204-120.8645 -77.1164 -76.1000 -75.6735 -75.6735 -74.8111 -74.8111
    -9.4031  -7.0840  -4.3791  -4.3736  -3.8304  -3.1901  -3.1047  -2.1061
    -2.0953  -1.9400  -1.4845  -1.0942   1.5107   1.5952   2.8608   6.1059
     6.5222   6.7497

          k = 0.3333 0.5774 0.2034 (  5574 PWs)   bands (ev):

  -121.8204-120.8645 -77.1164 -76.1000 -75.6735 -75.6735 -74.8111 -74.8111
    -9.4021  -7.0830  -4.3792  -4.3731  -3.8346  -3.1905  -3.1075  -2.1006
    -2.0952  -1.9286  -1.4845  -1.0940   1.3892   1.6240   2.7991   6.5252
     6.5264   6.9171

          k = 0.3333 0.5774-0.3051 (  5586 PWs)   bands (ev):

  -121.8204-120.8645 -77.1164 -76.1000 -75.6735 -75.6735 -74.8111 -74.8111
    -9.4016  -7.0825  -4.3793  -4.3729  -3.8367  -3.1907  -3.1088  -2.0981
    -2.0952  -1.9224  -1.4846  -1.0940   1.3316   1.6387   2.7701   6.4257
     6.7683   7.1755

          k = 0.0000-0.1925 0.1017 (  5596 PWs)   bands (ev):

  -121.8204-120.8645 -77.1164 -76.1000 -75.6735 -75.6734 -74.8110 -74.8110
    -9.7097  -7.1404  -4.3925  -4.2901  -4.1902  -3.1240  -3.0862  -2.1084
    -2.0843  -1.8449  -1.6454  -1.5029   2.1434   3.0351   3.7029   6.0130
     7.2007   7.5678

          k = 0.0000-0.1925 0.2034 (  5599 PWs)   bands (ev):

  -121.8204-120.8645 -77.1164 -76.1000 -75.6735 -75.6734 -74.8110 -74.8110
    -9.7055  -7.1456  -4.3949  -4.2900  -4.1919  -3.1250  -3.0875  -2.1098
    -2.0838  -1.8597  -1.6450  -1.5396   2.3780   3.0611   3.7175   5.7086
     7.1215   7.5181

          k = 0.0000-0.3849 0.1017 (  5609 PWs)   bands (ev):

  -121.8204-120.8645 -77.1164 -76.1000 -75.6735 -75.6735 -74.8111 -74.8110
    -9.5363  -7.1093  -4.4262  -4.2996  -4.0094  -3.1805  -3.0827  -2.1304
    -2.0608  -1.9058  -1.5489  -1.2711   1.5590   2.6844   3.1117   5.4484
     6.9750   7.6490

          k = 0.0000-0.3849 0.2034 (  5616 PWs)   bands (ev):

  -121.8204-120.8645 -77.1164 -76.1000 -75.6735 -75.6735 -74.8111 -74.8110
    -9.5339  -7.1110  -4.4270  -4.2993  -4.0124  -3.1814  -3.0843  -2.1328
    -2.0606  -1.8967  -1.5486  -1.2910   1.4651   2.8080   3.1298   5.6073
     7.0389   7.5615

          k =-0.1667-0.4811 0.1017 (  5605 PWs)   bands (ev):

  -121.8204-120.8645 -77.1164 -76.1000 -75.6735 -75.6735 -74.8111 -74.8110
    -9.4474  -7.0929  -4.4187  -4.3259  -3.8954  -3.1922  -3.0925  -2.1253
    -2.0690  -1.9293  -1.4951  -1.1817   1.3353   2.3184   2.8179   5.7354
     6.6598   7.2192

          k =-0.1667-0.4811 0.2034 (  5608 PWs)   bands (ev):

  -121.8204-120.8645 -77.1164 -76.1000 -75.6735 -75.6735 -74.8111 -74.8110
    -9.4459  -7.0928  -4.4189  -4.3256  -3.8992  -3.1929  -3.0946  -2.1261
    -2.0673  -1.9160  -1.4955  -1.1856   1.2338   2.3253   2.8179   6.0456
     6.8442   7.1890

     highest occupied level (ev):     7.6914

!    total energy              =    -839.89806659 Ry
     estimated scf accuracy    <          4.6E-09 Ry

     The total energy is the sum of the following terms:
     one-electron contribution =    -844.97295790 Ry
     hartree contribution      =     423.95464802 Ry
     xc contribution           =     -82.69485357 Ry
     ewald contribution        =    -336.18490314 Ry

     convergence has been achieved in  11 iterations

     Writing all to output data dir ./SCRATCH/zns_w.save/

     init_run     :      3.08s CPU      3.13s WALL (       1 calls)
     electrons    :    132.89s CPU    133.70s WALL (       1 calls)

     Called by init_run:
     wfcinit      :      2.91s CPU      2.94s WALL (       1 calls)
     potinit      :      0.09s CPU      0.10s WALL (       1 calls)
     hinit0       :      0.05s CPU      0.06s WALL (       1 calls)

     Called by electrons:
     c_bands      :    122.41s CPU    123.15s WALL (      11 calls)
     sum_band     :     10.00s CPU     10.06s WALL (      11 calls)
     v_of_rho     :      0.47s CPU      0.46s WALL (      12 calls)
     mix_rho      :      0.06s CPU      0.06s WALL (      11 calls)

     Called by c_bands:
     init_us_2    :      1.06s CPU      1.04s WALL (     782 calls)
     init_us_2:cp :      1.06s CPU      1.04s WALL (     782 calls)
     cegterg      :    119.98s CPU    120.66s WALL (     374 calls)

     Called by *egterg:
     cdiaghg      :      1.69s CPU      1.48s WALL (    2517 calls)
     h_psi        :     87.31s CPU     87.55s WALL (    2551 calls)
     g_psi        :      0.41s CPU      0.37s WALL (    2143 calls)

     Called by h_psi:
     h_psi:calbec :     10.70s CPU     10.93s WALL (    2551 calls)
     vloc_psi     :     68.19s CPU     68.47s WALL (    2551 calls)
     add_vuspsi   :      8.03s CPU      7.69s WALL (    2551 calls)

     General routines
     calbec       :     10.70s CPU     10.91s WALL (    2551 calls)
     fft          :      0.16s CPU      0.17s WALL (     119 calls)
     ffts         :      0.00s CPU      0.02s WALL (      11 calls)
     fftw         :     70.92s CPU     70.84s WALL (   79234 calls)


     PWSCF        :   2m15.98s CPU   2m16.90s WALL


   This run was terminated on:   9:36:21  10Jun2024            

=------------------------------------------------------------------------------=
   JOB DONE.
=------------------------------------------------------------------------------=
