
     Program PWSCF v.7.2 starts on 19Mar2024 at 11:25:49 

     This program is part of the open-source Quantum ESPRESSO suite
     for quantum simulation of materials; please cite
         "P. Giannozzi et al., J. Phys.:Condens. Matter 21 395502 (2009);
         "P. Giannozzi et al., J. Phys.:Condens. Matter 29 465901 (2017);
         "P. Giannozzi et al., J. Chem. Phys. 152 154105 (2020);
          URL http://www.quantum-espresso.org", 
     in publications or presentations arising from this work. More details at
     http://www.quantum-espresso.org/quote

     Serial version
     5660 MiB available memory on the printing compute node when the environment starts

     Waiting for input...
     Reading input from standard input

     Current dimensions of program PWSCF are:
     Max number of different atomic species (ntypx) = 10
     Max number of k-points (npk) =  40000
     Max angular momentum in pseudopotentials (lmaxx) =  4
     file Ga.pz-dn-rrkjus_psl.0.2.UPF: wavefunction(s)  4S 3D renormalized


     G-vector sticks info
     --------------------
     sticks:   dense  smooth     PW     G-vecs:    dense   smooth      PW
     Sum        1135    1135    337                25125    25125    4015

     Using Slab Decomposition



     bravais-lattice index     =            2
     lattice parameter (alat)  =      10.1489  a.u.
     unit-cell volume          =     261.3377 (a.u.)^3
     number of atoms/cell      =            2
     number of atomic types    =            2
     number of electrons       =        18.00
     number of Kohn-Sham states=            9
     kinetic-energy cutoff     =      80.0000  Ry
     charge density cutoff     =     320.0000  Ry
     scf convergence threshold =      1.0E-08
     mixing beta               =       0.7000
     number of iterations used =            8  plain     mixing
     energy convergence thresh.=      1.0E-04
     force convergence thresh. =      1.0E-03
     press convergence thresh. =      5.0E-01
     Exchange-correlation= LDA
                           (   1   1   0   0   0   0   0)
     nstep                     =           50


     celldm(1)=  10.148940  celldm(2)=   0.000000  celldm(3)=   0.000000
     celldm(4)=   0.000000  celldm(5)=   0.000000  celldm(6)=   0.000000

     crystal axes: (cart. coord. in units of alat)
               a(1) = (  -0.500000   0.000000   0.500000 )  
               a(2) = (   0.000000   0.500000   0.500000 )  
               a(3) = (  -0.500000   0.500000   0.000000 )  

     reciprocal axes: (cart. coord. in units 2 pi/alat)
               b(1) = ( -1.000000 -1.000000  1.000000 )  
               b(2) = (  1.000000  1.000000  1.000000 )  
               b(3) = ( -1.000000  1.000000 -1.000000 )  


     PseudoPot. # 1 for Ga read from file:
     /home/paolo/LABQSM/pseudo/Ga.pz-dn-rrkjus_psl.0.2.UPF
     MD5 check sum: 337958ae198bc3768054a43796a587a1
     Pseudo is Ultrasoft + core correction, Zval = 13.0
     Generated using "atomic" code by A. Dal Corso  v.5.0.2 svn rev. 9415
     Using radial grid of 1205 points,  6 beta functions with: 
                l(1) =   0
                l(2) =   0
                l(3) =   1
                l(4) =   1
                l(5) =   2
                l(6) =   2
     Q(r) pseudized with 0 coefficients 


     PseudoPot. # 2 for As read from file:
     /home/paolo/LABQSM/pseudo/As.pz-n-rrkjus_psl.0.2.UPF
     MD5 check sum: f80104272e9b817acfe428865afbdb7e
     Pseudo is Ultrasoft + core correction, Zval =  5.0
     Generated using "atomic" code by A. Dal Corso  v.5.0.2 svn rev. 9415
     Using radial grid of 1209 points,  4 beta functions with: 
                l(1) =   0
                l(2) =   0
                l(3) =   1
                l(4) =   1
     Q(r) pseudized with 0 coefficients 


     atomic species   valence    mass     pseudopotential
        Ga            13.00    69.72300     Ga( 1.00)
        As             5.00    74.92200     As( 1.00)

     24 Sym. Ops. (no inversion) found



   Cartesian axes

     site n.     atom                  positions (alat units)
         1           Ga  tau(   1) = (   0.0000000   0.0000000   0.0000000  )
         2           As  tau(   2) = (   0.2500000   0.2500000   0.2500000  )

     number of k points=    29
                       cart. coord. in units 2pi/alat
        k(    1) = (   0.0000000   0.0000000   0.0000000), wk =   0.0039062
        k(    2) = (  -0.1250000   0.1250000  -0.1250000), wk =   0.0312500
        k(    3) = (  -0.2500000   0.2500000  -0.2500000), wk =   0.0312500
        k(    4) = (  -0.3750000   0.3750000  -0.3750000), wk =   0.0312500
        k(    5) = (   0.5000000  -0.5000000   0.5000000), wk =   0.0156250
        k(    6) = (   0.0000000   0.2500000   0.0000000), wk =   0.0234375
        k(    7) = (  -0.1250000   0.3750000  -0.1250000), wk =   0.0937500
        k(    8) = (  -0.2500000   0.5000000  -0.2500000), wk =   0.0937500
        k(    9) = (   0.6250000  -0.3750000   0.6250000), wk =   0.0937500
        k(   10) = (   0.5000000  -0.2500000   0.5000000), wk =   0.0937500
        k(   11) = (   0.3750000  -0.1250000   0.3750000), wk =   0.0937500
        k(   12) = (   0.2500000   0.0000000   0.2500000), wk =   0.0468750
        k(   13) = (   0.0000000   0.5000000   0.0000000), wk =   0.0234375
        k(   14) = (  -0.1250000   0.6250000  -0.1250000), wk =   0.0937500
        k(   15) = (   0.7500000  -0.2500000   0.7500000), wk =   0.0937500
        k(   16) = (   0.6250000  -0.1250000   0.6250000), wk =   0.0937500
        k(   17) = (   0.5000000   0.0000000   0.5000000), wk =   0.0468750
        k(   18) = (   0.0000000   0.7500000   0.0000000), wk =   0.0234375
        k(   19) = (   0.8750000  -0.1250000   0.8750000), wk =   0.0937500
        k(   20) = (   0.7500000   0.0000000   0.7500000), wk =   0.0468750
        k(   21) = (   0.0000000  -1.0000000   0.0000000), wk =   0.0117188
        k(   22) = (  -0.2500000   0.5000000   0.0000000), wk =   0.0937500
        k(   23) = (   0.6250000  -0.3750000   0.8750000), wk =   0.1875000
        k(   24) = (   0.5000000  -0.2500000   0.7500000), wk =   0.0937500
        k(   25) = (   0.7500000  -0.2500000   1.0000000), wk =   0.0937500
        k(   26) = (   0.6250000  -0.1250000   0.8750000), wk =   0.1875000
        k(   27) = (   0.5000000   0.0000000   0.7500000), wk =   0.0937500
        k(   28) = (  -0.2500000  -1.0000000   0.0000000), wk =   0.0468750
        k(   29) = (  -0.5000000  -1.0000000   0.0000000), wk =   0.0234375

     Dense  grid:    25125 G-vectors     FFT dimensions: (  45,  45,  45)

     Estimated max dynamical RAM per process >     114.54 MB

     Initial potential from superposition of free atoms

     starting charge      17.9975, renormalised to      18.0000
     Starting wfcs are   13 randomized atomic wfcs

     total cpu time spent up to now is        6.3 secs

     Self-consistent Calculation

     iteration #  1     ecut=    80.00 Ry     beta= 0.70
     Davidson diagonalization with overlap
     ethr =  1.00E-02,  avg # of iterations =  1.8

     Threshold (ethr) on eigenvalues was too large:
     Diagonalizing with lowered threshold

     Davidson diagonalization with overlap
     ethr =  4.75E-04,  avg # of iterations =  1.7

     total cpu time spent up to now is       13.7 secs

     total energy              =    -190.69392743 Ry
     estimated scf accuracy    <       0.06575744 Ry

     iteration #  2     ecut=    80.00 Ry     beta= 0.70
     Davidson diagonalization with overlap
     ethr =  3.65E-04,  avg # of iterations =  2.2

     total cpu time spent up to now is       18.7 secs

     total energy              =    -190.68922460 Ry
     estimated scf accuracy    <       0.09807069 Ry

     iteration #  3     ecut=    80.00 Ry     beta= 0.70
     Davidson diagonalization with overlap
     ethr =  3.65E-04,  avg # of iterations =  2.0

     total cpu time spent up to now is       23.1 secs

     total energy              =    -190.71138691 Ry
     estimated scf accuracy    <       0.01794300 Ry

     iteration #  4     ecut=    80.00 Ry     beta= 0.70
     Davidson diagonalization with overlap
     ethr =  9.97E-05,  avg # of iterations =  2.0

     total cpu time spent up to now is       27.5 secs

     total energy              =    -190.71415390 Ry
     estimated scf accuracy    <       0.00008999 Ry

     iteration #  5     ecut=    80.00 Ry     beta= 0.70
     Davidson diagonalization with overlap
     ethr =  5.00E-07,  avg # of iterations =  4.0

     total cpu time spent up to now is       32.7 secs

     total energy              =    -190.71421925 Ry
     estimated scf accuracy    <       0.00006054 Ry

     iteration #  6     ecut=    80.00 Ry     beta= 0.70
     Davidson diagonalization with overlap
     ethr =  3.36E-07,  avg # of iterations =  1.0

     total cpu time spent up to now is       36.3 secs

     total energy              =    -190.71419381 Ry
     estimated scf accuracy    <       0.00003738 Ry

     iteration #  7     ecut=    80.00 Ry     beta= 0.70
     Davidson diagonalization with overlap
     ethr =  2.08E-07,  avg # of iterations =  2.8

     total cpu time spent up to now is       40.8 secs

     total energy              =    -190.71420575 Ry
     estimated scf accuracy    <       0.00000811 Ry

     iteration #  8     ecut=    80.00 Ry     beta= 0.70
     Davidson diagonalization with overlap
     ethr =  4.51E-08,  avg # of iterations =  2.0

     total cpu time spent up to now is       45.1 secs

     total energy              =    -190.71420645 Ry
     estimated scf accuracy    <       0.00000069 Ry

     iteration #  9     ecut=    80.00 Ry     beta= 0.70
     Davidson diagonalization with overlap
     ethr =  3.83E-09,  avg # of iterations =  2.1

     total cpu time spent up to now is       50.1 secs

     End of self-consistent calculation

          k = 0.0000 0.0000 0.0000 (  3143 PWs)   bands (ev):

    -6.7584  -6.7584  -6.7584  -6.6346  -6.6346  -5.5108   8.4994   8.4994
     8.4994

          k =-0.1250 0.1250-0.1250 (  3164 PWs)   bands (ev):

    -6.7882  -6.7526  -6.7526  -6.6349  -6.6349  -5.2796   6.4832   8.1936
     8.1936

          k =-0.2500 0.2500-0.2500 (  3167 PWs)   bands (ev):

    -6.8434  -6.7400  -6.7400  -6.6338  -6.6338  -4.6420   3.9247   7.6475
     7.6475

          k =-0.3750 0.3750-0.3750 (  3160 PWs)   bands (ev):

    -6.8863  -6.7304  -6.7304  -6.6298  -6.6298  -3.7645   1.8132   7.2399
     7.2399

          k = 0.5000-0.5000 0.5000 (  3142 PWs)   bands (ev):

    -6.9020  -6.7274  -6.7274  -6.6270  -6.6270  -3.2254   0.8525   7.0952
     7.0952

          k = 0.0000 0.2500 0.0000 (  3163 PWs)   bands (ev):

    -6.8014  -6.7471  -6.7471  -6.6402  -6.6312  -5.2045   6.6022   7.6475
     7.6475

          k =-0.1250 0.3750-0.1250 (  3161 PWs)   bands (ev):

    -6.8435  -6.7366  -6.7339  -6.6445  -6.6281  -4.7047   4.6206   7.0502
     7.0776

          k =-0.2500 0.5000-0.2500 (  3146 PWs)   bands (ev):

    -6.8827  -6.7281  -6.7229  -6.6426  -6.6252  -3.8913   2.4771   6.3882
     6.7072

          k = 0.6250-0.3750 0.6250 (  3158 PWs)   bands (ev):

    -6.9030  -6.7243  -6.7192  -6.6355  -6.6257  -3.1440   1.0814   5.8801
     6.7069

          k = 0.5000-0.2500 0.5000 (  3162 PWs)   bands (ev):

    -6.8976  -6.7247  -6.7223  -6.6320  -6.6305  -3.3381   1.4129   5.6953
     7.0387

          k = 0.3750-0.1250 0.3750 (  3152 PWs)   bands (ev):

    -6.8680  -6.7324  -6.7298  -6.6383  -6.6306  -4.1870   3.1510   5.9189
     7.6069

          k = 0.2500 0.0000 0.2500 (  3160 PWs)   bands (ev):

    -6.8240  -6.7458  -6.7406  -6.6385  -6.6323  -4.9149   5.1935   6.7591
     8.1568

          k = 0.0000 0.5000 0.0000 (  3178 PWs)   bands (ev):

    -6.8720  -6.7187  -6.7187  -6.6566  -6.6230  -4.3608   4.2172   6.3882
     6.3882

          k =-0.1250 0.6250-0.1250 (  3156 PWs)   bands (ev):

    -6.8998  -6.7089  -6.7052  -6.6611  -6.6197  -3.6728   2.7825   5.5180
     5.9957

          k = 0.7500-0.2500 0.7500 (  3168 PWs)   bands (ev):

    -6.9132  -6.7102  -6.7001  -6.6545  -6.6216  -2.8904   1.4749   4.5527
     5.9806

          k = 0.6250-0.1250 0.6250 (  3171 PWs)   bands (ev):

    -6.9100  -6.7154  -6.7039  -6.6433  -6.6300  -2.7474   1.2884   4.0470
     6.3437

          k = 0.5000 0.0000 0.5000 (  3150 PWs)   bands (ev):

    -6.8931  -6.7215  -6.7165  -6.6377  -6.6344  -3.4394   2.2707   4.3544
     6.9849

          k = 0.0000 0.7500 0.0000 (  3162 PWs)   bands (ev):

    -6.9223  -6.6892  -6.6892  -6.6749  -6.6148  -3.1445   2.0245   5.5167
     5.5167

          k = 0.8750-0.1250 0.8750 (  3166 PWs)   bands (ev):

    -6.9312  -6.6901  -6.6828  -6.6717  -6.6151  -2.5103   1.1940   4.6483
     5.4165

          k = 0.7500 0.0000 0.7500 (  3180 PWs)   bands (ev):

    -6.9241  -6.7019  -6.6879  -6.6596  -6.6225  -2.3096   1.0582   3.7212
     5.7177

          k = 0.0000-1.0000 0.0000 (  3138 PWs)   bands (ev):

    -6.9400  -6.6828  -6.6765  -6.6765  -6.6114  -2.2828   0.8228   5.2122
     5.2122

          k =-0.2500 0.5000 0.0000 (  3151 PWs)   bands (ev):

    -6.8760  -6.7250  -6.7204  -6.6495  -6.6253  -4.1114   3.4446   5.5157
     6.8893

          k = 0.6250-0.3750 0.8750 (  3156 PWs)   bands (ev):

    -6.9004  -6.7196  -6.7094  -6.6469  -6.6257  -3.2904   1.9345   4.7835
     6.3363

          k = 0.5000-0.2500 0.7500 (  3152 PWs)   bands (ev):

    -6.9094  -6.7187  -6.7054  -6.6423  -6.6278  -2.7938   1.1359   4.6127
     6.0801

          k = 0.7500-0.2500 1.0000 (  3163 PWs)   bands (ev):

    -6.9167  -6.7025  -6.6940  -6.6630  -6.6191  -2.9790   1.8396   4.7448
     5.4156

          k = 0.6250-0.1250 0.8750 (  3160 PWs)   bands (ev):

    -6.9201  -6.7070  -6.6903  -6.6554  -6.6244  -2.4092   1.1873   3.9828
     5.1954

          k = 0.5000 0.0000 0.7500 (  3144 PWs)   bands (ev):

    -6.9133  -6.7137  -6.6955  -6.6485  -6.6291  -2.6041   1.4036   3.8057
     5.6173

          k =-0.2500-1.0000 0.0000 (  3176 PWs)   bands (ev):

    -6.9313  -6.6914  -6.6860  -6.6655  -6.6176  -2.2287   0.9377   4.6294
     4.7076

          k =-0.5000-1.0000 0.0000 (  3156 PWs)   bands (ev):

    -6.9214  -6.7074  -6.6872  -6.6531  -6.6273  -2.1727   1.0725   4.1385
     4.3130

     highest occupied level (ev):     8.4994

!    total energy              =    -190.71420662 Ry
     estimated scf accuracy    <          4.1E-09 Ry

     The total energy is the sum of the following terms:
     one-electron contribution =    -104.37030766 Ry
     hartree contribution      =      68.85897284 Ry
     xc contribution           =     -57.28969401 Ry
     ewald contribution        =     -97.91317779 Ry

     convergence has been achieved in   9 iterations

     Forces acting on atoms (cartesian axes, Ry/au):

     atom    1 type  1   force =     0.00000000   -0.00000000    0.00000000
     atom    2 type  2   force =     0.00000000    0.00000000   -0.00000000
     The non-local contrib.  to forces
     atom    1 type  1   force =     0.00000000    0.00000000   -0.00000000
     atom    2 type  2   force =    -0.00000000    0.00000000   -0.00000000
     The ionic contribution  to forces
     atom    1 type  1   force =    -0.00000000   -0.00000000   -0.00000000
     atom    2 type  2   force =     0.00000000    0.00000000    0.00000000
     The local contribution  to forces
     atom    1 type  1   force =     0.00000000   -0.00000000   -0.00000000
     atom    2 type  2   force =    -0.00000000    0.00000000   -0.00000000
     The core correction contribution to forces
     atom    1 type  1   force =     0.00000000   -0.00000000   -0.00000000
     atom    2 type  2   force =     0.00000000   -0.00000000   -0.00000000
     The Hubbard contrib.    to forces
     atom    1 type  1   force =     0.00000000    0.00000000    0.00000000
     atom    2 type  2   force =     0.00000000    0.00000000    0.00000000
     The SCF correction term to forces
     atom    1 type  1   force =    -0.00000000   -0.00000000    0.00000000
     atom    2 type  2   force =    -0.00000000   -0.00000000    0.00000000

     Total force =     0.000000     Total SCF correction =     0.000000


     Computing stress (Cartesian axis) and pressure

          total   stress  (Ry/bohr**3)                   (kbar)     P=      133.97
   0.00091073  -0.00000000  -0.00000000          133.97       -0.00       -0.00
  -0.00000000   0.00091073   0.00000000           -0.00      133.97        0.00
  -0.00000000   0.00000000   0.00091073           -0.00        0.00      133.97


     BFGS Geometry Optimization
     Energy error            =      0.0E+00 Ry
     Gradient error          =      8.2E-32 Ry/Bohr
     Cell gradient error     =      1.3E+02 kbar

     number of scf cycles    =   1
     number of bfgs steps    =   0

     enthalpy           new  =    -190.7142066180 Ry

     new trust radius        =       0.0736144217 bohr
     new conv_thr            =       0.0000000100 Ry

     new unit-cell volume =    279.59787 a.u.^3 (    41.43213 Ang^3 )
     density =      5.79716 g/cm^3

CELL_PARAMETERS (alat= 10.14893951)
  -0.511384184   0.000000000   0.511384184
  -0.000000000   0.511384184   0.511384184
  -0.511384184   0.511384184   0.000000000

ATOMIC_POSITIONS (alat)
Ga            0.0000000000       -0.0000000000        0.0000000000
As            0.2556920921        0.2556920921        0.2556920921



     Writing config-only to output data dir ./SCRATCH/gallium arsenide.save/
     NEW-OLD atomic charge density approx. for the potential

     Check: negative core charge=   -0.000001
     extrapolated charge   19.17540, renormalised to   18.00000

     total cpu time spent up to now is       63.0 secs

     Self-consistent Calculation

     iteration #  1     ecut=    80.00 Ry     beta= 0.70
     Davidson diagonalization with overlap
     ethr =  1.00E-06,  avg # of iterations = 11.2

     total cpu time spent up to now is       77.8 secs

     total energy              =    -185.45246661 Ry
     estimated scf accuracy    <       4.85782649 Ry

     iteration #  2     ecut=    80.00 Ry     beta= 0.70
     Davidson diagonalization with overlap
     ethr =  1.00E-02,  avg # of iterations =  3.2

     total cpu time spent up to now is       83.8 secs

     total energy              =    -190.24643061 Ry
     estimated scf accuracy    <      23.67618541 Ry

     iteration #  3     ecut=    80.00 Ry     beta= 0.70
     Davidson diagonalization with overlap
     ethr =  1.00E-02,  avg # of iterations =  2.1

     total cpu time spent up to now is       88.8 secs

     total energy              =    -190.58128682 Ry
     estimated scf accuracy    <       4.31204754 Ry

     iteration #  4     ecut=    80.00 Ry     beta= 0.70
     Davidson diagonalization with overlap
     ethr =  1.00E-02,  avg # of iterations =  2.0

     total cpu time spent up to now is       93.2 secs

     total energy              =    -190.83521190 Ry
     estimated scf accuracy    <       0.72610255 Ry

     iteration #  5     ecut=    80.00 Ry     beta= 0.70
     Davidson diagonalization with overlap
     ethr =  4.03E-03,  avg # of iterations =  1.0

     total cpu time spent up to now is       96.8 secs

     total energy              =    -190.81716259 Ry
     estimated scf accuracy    <       0.58998723 Ry

     iteration #  6     ecut=    80.00 Ry     beta= 0.70
     Davidson diagonalization with overlap
     ethr =  3.28E-03,  avg # of iterations =  1.0

     total cpu time spent up to now is      100.4 secs

     total energy              =    -190.79857128 Ry
     estimated scf accuracy    <       0.46662399 Ry

     iteration #  7     ecut=    80.00 Ry     beta= 0.70
     Davidson diagonalization with overlap
     ethr =  2.59E-03,  avg # of iterations =  1.0

     total cpu time spent up to now is      104.0 secs

     total energy              =    -190.77051746 Ry
     estimated scf accuracy    <       0.36603819 Ry

     iteration #  8     ecut=    80.00 Ry     beta= 0.70
     Davidson diagonalization with overlap
     ethr =  2.03E-03,  avg # of iterations =  1.0

     total cpu time spent up to now is      107.7 secs

     total energy              =    -190.70963364 Ry
     estimated scf accuracy    <       0.23541746 Ry

     iteration #  9     ecut=    80.00 Ry     beta= 0.70
     Davidson diagonalization with overlap
     ethr =  1.31E-03,  avg # of iterations =  2.0

     total cpu time spent up to now is      112.1 secs

     total energy              =    -190.72142812 Ry
     estimated scf accuracy    <       0.02239703 Ry

     iteration # 10     ecut=    80.00 Ry     beta= 0.70
     Davidson diagonalization with overlap
     ethr =  1.24E-04,  avg # of iterations =  2.1

     total cpu time spent up to now is      116.6 secs

     total energy              =    -190.72561279 Ry
     estimated scf accuracy    <       0.00058653 Ry

     iteration # 11     ecut=    80.00 Ry     beta= 0.70
     Davidson diagonalization with overlap
     ethr =  3.26E-06,  avg # of iterations =  3.6

     total cpu time spent up to now is      122.0 secs

     total energy              =    -190.72562531 Ry
     estimated scf accuracy    <       0.00092835 Ry

     iteration # 12     ecut=    80.00 Ry     beta= 0.70
     Davidson diagonalization with overlap
     ethr =  3.26E-06,  avg # of iterations =  2.0

     total cpu time spent up to now is      126.4 secs

     total energy              =    -190.72573265 Ry
     estimated scf accuracy    <       0.00009953 Ry

     iteration # 13     ecut=    80.00 Ry     beta= 0.70
     Davidson diagonalization with overlap
     ethr =  5.53E-07,  avg # of iterations =  3.1

     total cpu time spent up to now is      131.7 secs

     total energy              =    -190.72578397 Ry
     estimated scf accuracy    <       0.00034735 Ry

     iteration # 14     ecut=    80.00 Ry     beta= 0.70
     Davidson diagonalization with overlap
     ethr =  5.53E-07,  avg # of iterations =  2.0

     total cpu time spent up to now is      136.5 secs

     total energy              =    -190.72563998 Ry
     estimated scf accuracy    <       0.00063807 Ry

     iteration # 15     ecut=    80.00 Ry     beta= 0.70
     Davidson diagonalization with overlap
     ethr =  5.53E-07,  avg # of iterations =  2.0

     total cpu time spent up to now is      141.4 secs

     total energy              =    -190.72568972 Ry
     estimated scf accuracy    <       0.00006936 Ry

     iteration # 16     ecut=    80.00 Ry     beta= 0.70
     Davidson diagonalization with overlap
     ethr =  3.85E-07,  avg # of iterations =  1.0

     total cpu time spent up to now is      145.0 secs

     total energy              =    -190.72567606 Ry
     estimated scf accuracy    <       0.00004835 Ry

     iteration # 17     ecut=    80.00 Ry     beta= 0.70
     Davidson diagonalization with overlap
     ethr =  2.69E-07,  avg # of iterations =  2.0

     total cpu time spent up to now is      149.4 secs

     total energy              =    -190.72568177 Ry
     estimated scf accuracy    <       0.00000156 Ry

     iteration # 18     ecut=    80.00 Ry     beta= 0.70
     Davidson diagonalization with overlap
     ethr =  8.65E-09,  avg # of iterations =  2.2

     total cpu time spent up to now is      153.4 secs

     total energy              =    -190.72568149 Ry
     estimated scf accuracy    <       0.00000074 Ry

     iteration # 19     ecut=    80.00 Ry     beta= 0.70
     Davidson diagonalization with overlap
     ethr =  4.14E-09,  avg # of iterations =  2.1

     total cpu time spent up to now is      158.4 secs

     total energy              =    -190.72568163 Ry
     estimated scf accuracy    <       0.00000003 Ry

     iteration # 20     ecut=    80.00 Ry     beta= 0.70
     Davidson diagonalization with overlap
     ethr =  1.48E-10,  avg # of iterations =  2.9

     total cpu time spent up to now is      163.5 secs

     End of self-consistent calculation

          k = 0.0000 0.0000 0.0000 (  3143 PWs)   bands (ev):

    -7.5124  -7.5124  -7.5124  -7.4106  -7.4106  -5.8821   7.5630   7.5630
     7.5630

          k =-0.1222 0.1222-0.1222 (  3164 PWs)   bands (ev):

    -7.5327  -7.5077  -7.5077  -7.4108  -7.4108  -5.6749   5.5548   7.2885
     7.2885

          k =-0.2444 0.2444-0.2444 (  3167 PWs)   bands (ev):

    -7.5744  -7.4975  -7.4975  -7.4099  -7.4099  -5.0971   3.1653   6.7890
     6.7890

          k =-0.3667 0.3667-0.3667 (  3160 PWs)   bands (ev):

    -7.6093  -7.4896  -7.4896  -7.4067  -7.4067  -4.3094   1.2182   6.4115
     6.4115

          k = 0.4889-0.4889 0.4889 (  3142 PWs)   bands (ev):

    -7.6225  -7.4871  -7.4871  -7.4046  -7.4046  -3.8418   0.3546   6.2770
     6.2770

          k = 0.0000 0.2444 0.0000 (  3163 PWs)   bands (ev):

    -7.5431  -7.5032  -7.5032  -7.4148  -7.4079  -5.6066   5.5956   6.7983
     6.7983

          k =-0.1222 0.3667-0.1222 (  3161 PWs)   bands (ev):

    -7.5755  -7.4947  -7.4926  -7.4181  -7.4054  -5.1522   3.7732   6.2443
     6.2493

          k =-0.2444 0.4889-0.2444 (  3146 PWs)   bands (ev):

    -7.6073  -7.4877  -7.4837  -7.4166  -7.4031  -4.4173   1.8068   5.5911
     5.9294

          k = 0.6111-0.3667 0.6111 (  3158 PWs)   bands (ev):

    -7.6242  -7.4845  -7.4806  -7.4111  -7.4035  -3.7628   0.5493   5.1178
     5.9251

          k = 0.4889-0.2444 0.4889 (  3162 PWs)   bands (ev):

    -7.6196  -7.4848  -7.4832  -7.4085  -7.4072  -3.9301   0.8446   4.9555
     6.2276

          k = 0.3667-0.1222 0.3667 (  3152 PWs)   bands (ev):

    -7.5948  -7.4914  -7.4891  -7.4134  -7.4072  -4.6838   2.4229   5.1848
     6.7472

          k = 0.2444 0.0000 0.2444 (  3160 PWs)   bands (ev):

    -7.5596  -7.5023  -7.4979  -7.4136  -7.4086  -5.3442   4.3095   5.9878
     7.2483

          k = 0.0000 0.4889 0.0000 (  3178 PWs)   bands (ev):

    -7.5997  -7.4805  -7.4805  -7.4271  -7.4013  -4.8361   3.3350   5.6403
     5.6403

          k =-0.1222 0.6111-0.1222 (  3156 PWs)   bands (ev):

    -7.6232  -7.4724  -7.4696  -7.4307  -7.3986  -4.2128   2.0203   4.8284
     5.2757

          k = 0.7333-0.2444 0.7333 (  3168 PWs)   bands (ev):

    -7.6346  -7.4731  -7.4655  -7.4258  -7.4001  -3.5250   0.8544   3.9226
     5.2595

          k = 0.6111-0.1222 0.6111 (  3171 PWs)   bands (ev):

    -7.6316  -7.4773  -7.4686  -7.4171  -7.4067  -3.4065   0.6964   3.4572
     5.5926

          k = 0.4889 0.0000 0.4889 (  3150 PWs)   bands (ev):

    -7.6167  -7.4823  -7.4787  -7.4128  -7.4100  -4.0112   1.5715   3.7581
     6.1804

          k = 0.0000 0.7333 0.0000 (  3162 PWs)   bands (ev):

    -7.6430  -7.4569  -7.4569  -7.4410  -7.3947  -3.7358   1.3117   4.8325
     4.8325

          k = 0.8555-0.1222 0.8555 (  3166 PWs)   bands (ev):

    -7.6509  -7.4566  -7.4518  -7.4394  -7.3949  -3.1851   0.5720   4.0388
     4.7388

          k = 0.7333 0.0000 0.7333 (  3180 PWs)   bands (ev):

    -7.6446  -7.4662  -7.4559  -7.4299  -7.4007  -3.0235   0.4618   3.1903
     5.0164

          k = 0.0000-0.9777 0.0000 (  3138 PWs)   bands (ev):

    -7.6587  -7.4470  -7.4468  -7.4468  -7.3919  -2.9911   0.2495   4.5498
     4.5498

          k =-0.2444 0.4889 0.0000 (  3151 PWs)   bands (ev):

    -7.6024  -7.4854  -7.4816  -7.4218  -7.4031  -4.6122   2.6490   4.8356
     6.0889

          k = 0.6111-0.3667 0.8555 (  3156 PWs)   bands (ev):

    -7.6231  -7.4809  -7.4727  -7.4199  -7.4034  -3.8783   1.2786   4.1315
     5.5895

          k = 0.4889-0.2444 0.7333 (  3152 PWs)   bands (ev):

    -7.6308  -7.4801  -7.4695  -7.4164  -7.4051  -3.4503   0.5763   3.9561
     5.3586

          k = 0.7333-0.2444 0.9777 (  3163 PWs)   bands (ev):

    -7.6380  -7.4674  -7.4601  -7.4324  -7.3981  -3.5947   1.1496   4.1218
     4.7495

          k = 0.6111-0.1222 0.8555 (  3160 PWs)   bands (ev):

    -7.6411  -7.4709  -7.4570  -7.4269  -7.4022  -3.1076   0.5766   3.4213
     4.5475

          k = 0.4889-0.0000 0.7333 (  3144 PWs)   bands (ev):

    -7.6349  -7.4762  -7.4614  -7.4213  -7.4059  -3.2767   0.7706   3.2590
     4.9334

          k =-0.2444-0.9777 0.0000 (  3176 PWs)   bands (ev):

    -7.6511  -7.4587  -7.4524  -7.4354  -7.3968  -2.9496   0.3510   4.0164
     4.1011

          k =-0.4889-0.9777 0.0000 (  3156 PWs)   bands (ev):

    -7.6425  -7.4716  -7.4539  -7.4255  -7.4043  -2.9069   0.4680   3.5685
     3.7478

     highest occupied level (ev):     7.5630

!    total energy              =    -190.72568163 Ry
     estimated scf accuracy    <          5.3E-09 Ry

     The total energy is the sum of the following terms:
     one-electron contribution =    -107.86642641 Ry
     hartree contribution      =      70.07734133 Ry
     xc contribution           =     -57.20311396 Ry
     ewald contribution        =     -95.73348259 Ry

     convergence has been achieved in  20 iterations
