
     Program PWSCF v.7.2 starts on 21May2024 at 18:56:56 

     This program is part of the open-source Quantum ESPRESSO suite
     for quantum simulation of materials; please cite
         "P. Giannozzi et al., J. Phys.:Condens. Matter 21 395502 (2009);
         "P. Giannozzi et al., J. Phys.:Condens. Matter 29 465901 (2017);
         "P. Giannozzi et al., J. Chem. Phys. 152 154105 (2020);
          URL http://www.quantum-espresso.org", 
     in publications or presentations arising from this work. More details at
     http://www.quantum-espresso.org/quote

     Serial version
     9071 MiB available memory on the printing compute node when the environment starts

     Waiting for input...
     Reading input from standard input

     Current dimensions of program PWSCF are:
     Max number of different atomic species (ntypx) = 10
     Max number of k-points (npk) =  40000
     Max angular momentum in pseudopotentials (lmaxx) =  4


     G-vector sticks info
     --------------------
     sticks:   dense  smooth     PW     G-vecs:    dense   smooth      PW
     Sum         967     967    295                20179    20179    3287

     Using Slab Decomposition



     bravais-lattice index     =            2
     lattice parameter (alat)  =      10.8831  a.u.
     unit-cell volume          =     322.2531 (a.u.)^3
     number of atoms/cell      =            2
     number of atomic types    =            2
     number of electrons       =        28.00
     number of Kohn-Sham states=           14
     kinetic-energy cutoff     =      60.0000  Ry
     charge density cutoff     =     240.0000  Ry
     scf convergence threshold =      1.0E-08
     mixing beta               =       0.7000
     number of iterations used =            8  plain     mixing
     energy convergence thresh.=      1.0E-04
     force convergence thresh. =      1.0E-03
     press convergence thresh. =      5.0E-01
     Exchange-correlation= SLA  PW   NOGX NOGC
                           (   1   4   0   0   0   0   0)
     nstep                     =           50


     celldm(1)=  10.883093  celldm(2)=   0.000000  celldm(3)=   0.000000
     celldm(4)=   0.000000  celldm(5)=   0.000000  celldm(6)=   0.000000

     crystal axes: (cart. coord. in units of alat)
               a(1) = (  -0.500000   0.000000   0.500000 )  
               a(2) = (   0.000000   0.500000   0.500000 )  
               a(3) = (  -0.500000   0.500000   0.000000 )  

     reciprocal axes: (cart. coord. in units 2 pi/alat)
               b(1) = ( -1.000000 -1.000000  1.000000 )  
               b(2) = (  1.000000  1.000000  1.000000 )  
               b(3) = ( -1.000000  1.000000 -1.000000 )  


     PseudoPot. # 1 for Ga read from file:
     /home/paolo/project_labqsm/pseudopotentials/Ga.upf
     MD5 check sum: 1297264db1911d3fa8c63c42f023f390
     Pseudo is Norm-conserving + core correction, Zval = 13.0
     Generated using ONCVPSP code by D. R. Hamann
     Using radial grid of 1858 points,  6 beta functions with: 
                l(1) =   0
                l(2) =   0
                l(3) =   1
                l(4) =   1
                l(5) =   2
                l(6) =   2

     PseudoPot. # 2 for As read from file:
     /home/paolo/project_labqsm/pseudopotentials/As.upf
     MD5 check sum: 33c531620a5edaf59d417d4ab58437b1
     Pseudo is Norm-conserving + core correction, Zval = 15.0
     Generated using ONCVPSP code by D. R. Hamann
     Using radial grid of 1326 points,  6 beta functions with: 
                l(1) =   0
                l(2) =   0
                l(3) =   1
                l(4) =   1
                l(5) =   2
                l(6) =   2

     atomic species   valence    mass     pseudopotential
        Ga            13.00    69.72300     Ga( 1.00)
        As            15.00    74.92200     As( 1.00)

     24 Sym. Ops. (no inversion) found



   Cartesian axes

     site n.     atom                  positions (alat units)
         1           Ga  tau(   1) = (   0.0000000   0.0000000   0.0000000  )
         2           As  tau(   2) = (   0.2500000   0.2500000   0.2500000  )

     number of k points=    29
                       cart. coord. in units 2pi/alat
        k(    1) = (   0.0000000   0.0000000   0.0000000), wk =   0.0039062
        k(    2) = (  -0.1250000   0.1250000  -0.1250000), wk =   0.0312500
        k(    3) = (  -0.2500000   0.2500000  -0.2500000), wk =   0.0312500
        k(    4) = (  -0.3750000   0.3750000  -0.3750000), wk =   0.0312500
        k(    5) = (   0.5000000  -0.5000000   0.5000000), wk =   0.0156250
        k(    6) = (   0.0000000   0.2500000   0.0000000), wk =   0.0234375
        k(    7) = (  -0.1250000   0.3750000  -0.1250000), wk =   0.0937500
        k(    8) = (  -0.2500000   0.5000000  -0.2500000), wk =   0.0937500
        k(    9) = (   0.6250000  -0.3750000   0.6250000), wk =   0.0937500
        k(   10) = (   0.5000000  -0.2500000   0.5000000), wk =   0.0937500
        k(   11) = (   0.3750000  -0.1250000   0.3750000), wk =   0.0937500
        k(   12) = (   0.2500000   0.0000000   0.2500000), wk =   0.0468750
        k(   13) = (   0.0000000   0.5000000   0.0000000), wk =   0.0234375
        k(   14) = (  -0.1250000   0.6250000  -0.1250000), wk =   0.0937500
        k(   15) = (   0.7500000  -0.2500000   0.7500000), wk =   0.0937500
        k(   16) = (   0.6250000  -0.1250000   0.6250000), wk =   0.0937500
        k(   17) = (   0.5000000   0.0000000   0.5000000), wk =   0.0468750
        k(   18) = (   0.0000000   0.7500000   0.0000000), wk =   0.0234375
        k(   19) = (   0.8750000  -0.1250000   0.8750000), wk =   0.0937500
        k(   20) = (   0.7500000   0.0000000   0.7500000), wk =   0.0468750
        k(   21) = (   0.0000000  -1.0000000   0.0000000), wk =   0.0117188
        k(   22) = (  -0.2500000   0.5000000   0.0000000), wk =   0.0937500
        k(   23) = (   0.6250000  -0.3750000   0.8750000), wk =   0.1875000
        k(   24) = (   0.5000000  -0.2500000   0.7500000), wk =   0.0937500
        k(   25) = (   0.7500000  -0.2500000   1.0000000), wk =   0.0937500
        k(   26) = (   0.6250000  -0.1250000   0.8750000), wk =   0.1875000
        k(   27) = (   0.5000000   0.0000000   0.7500000), wk =   0.0937500
        k(   28) = (  -0.2500000  -1.0000000   0.0000000), wk =   0.0468750
        k(   29) = (  -0.5000000  -1.0000000   0.0000000), wk =   0.0234375

     Dense  grid:    20179 G-vectors     FFT dimensions: (  40,  40,  40)

     Estimated max dynamical RAM per process >      38.18 MB

     Initial potential from superposition of free atoms

     starting charge      27.9977, renormalised to      28.0000
     Starting wfcs are   18 randomized atomic wfcs

     total cpu time spent up to now is        2.0 secs

     Self-consistent Calculation

     iteration #  1     ecut=    60.00 Ry     beta= 0.70
     Davidson diagonalization with overlap
     ethr =  1.00E-02,  avg # of iterations =  2.0

     Threshold (ethr) on eigenvalues was too large:
     Diagonalizing with lowered threshold

     Davidson diagonalization with overlap
     ethr =  1.73E-04,  avg # of iterations =  3.0

     total cpu time spent up to now is        5.6 secs

     total energy              =    -364.53052030 Ry
     estimated scf accuracy    <       0.05331904 Ry

     iteration #  2     ecut=    60.00 Ry     beta= 0.70
     Davidson diagonalization with overlap
     ethr =  1.90E-04,  avg # of iterations =  3.4

     total cpu time spent up to now is        7.5 secs

     total energy              =    -364.53951341 Ry
     estimated scf accuracy    <       0.00830590 Ry

     iteration #  3     ecut=    60.00 Ry     beta= 0.70
     Davidson diagonalization with overlap
     ethr =  2.97E-05,  avg # of iterations =  4.1

     total cpu time spent up to now is        9.3 secs

     total energy              =    -364.54154867 Ry
     estimated scf accuracy    <       0.00031496 Ry

     iteration #  4     ecut=    60.00 Ry     beta= 0.70
     Davidson diagonalization with overlap
     ethr =  1.12E-06,  avg # of iterations =  2.1

     total cpu time spent up to now is       11.3 secs

     total energy              =    -364.54159698 Ry
     estimated scf accuracy    <       0.00002493 Ry

     iteration #  5     ecut=    60.00 Ry     beta= 0.70
     Davidson diagonalization with overlap
     ethr =  8.90E-08,  avg # of iterations =  4.0

     total cpu time spent up to now is       13.3 secs

     total energy              =    -364.54160676 Ry
     estimated scf accuracy    <       0.00000484 Ry

     iteration #  6     ecut=    60.00 Ry     beta= 0.70
     Davidson diagonalization with overlap
     ethr =  1.73E-08,  avg # of iterations =  3.7

     total cpu time spent up to now is       15.0 secs

     total energy              =    -364.54160813 Ry
     estimated scf accuracy    <       0.00000012 Ry

     iteration #  7     ecut=    60.00 Ry     beta= 0.70
     Davidson diagonalization with overlap
     ethr =  4.32E-10,  avg # of iterations =  3.1

     total cpu time spent up to now is       17.1 secs

     total energy              =    -364.54160812 Ry
     estimated scf accuracy    <       0.00000007 Ry

     iteration #  8     ecut=    60.00 Ry     beta= 0.70
     Davidson diagonalization with overlap
     ethr =  2.55E-10,  avg # of iterations =  3.5

     total cpu time spent up to now is       18.7 secs

     End of self-consistent calculation

          k = 0.0000 0.0000 0.0000 (  2637 PWs)   bands (ev):

   -27.8381 -27.8381 -27.8381 -27.8221 -27.8221  -7.1672  -7.1672  -7.1672
    -7.0982  -7.0982  -4.6836   7.5891   7.7249   7.7249

          k =-0.1250 0.1250-0.1250 (  2550 PWs)   bands (ev):

   -27.7881 -27.7838 -27.7838 -27.7686 -27.7686  -7.1582  -7.1438  -7.1438
    -7.0791  -7.0791  -4.5167   5.6338   7.5094   7.5094

          k =-0.2500 0.2500-0.2500 (  2541 PWs)   bands (ev):

   -27.7843 -27.7843 -27.7740 -27.7690 -27.7690  -7.1754  -7.1379  -7.1379
    -7.0791  -7.0791  -4.0519   3.6158   7.0989   7.0989

          k =-0.3750 0.3750-0.3750 (  2530 PWs)   bands (ev):

   -27.7818 -27.7818 -27.7745 -27.7562 -27.7562  -7.1965  -7.1321  -7.1321
    -7.0731  -7.0731  -3.4380   2.0041   6.7796   6.7796

          k = 0.5000-0.5000 0.5000 (  2512 PWs)   bands (ev):

   -27.7781 -27.7712 -27.7712 -27.7405 -27.7405  -7.2062  -7.1254  -7.1254
    -7.0669  -7.0669  -3.0980   1.3219   6.6645   6.6645

          k = 0.0000 0.2500 0.0000 (  2549 PWs)   bands (ev):

   -27.7849 -27.7849 -27.7764 -27.7746 -27.7734  -7.1598  -7.1416  -7.1416
    -7.0833  -7.0797  -4.4609   5.5503   7.1233   7.1233

          k =-0.1250 0.3750-0.1250 (  2544 PWs)   bands (ev):

   -27.7890 -27.7846 -27.7822 -27.7717 -27.7627  -7.1802  -7.1368  -7.1352
    -7.0822  -7.0775  -4.0934   4.0495   6.6184   6.6673

          k =-0.2500 0.5000-0.2500 (  2530 PWs)   bands (ev):

   -27.7861 -27.7738 -27.7726 -27.7652 -27.7528  -7.1972  -7.1310  -7.1229
    -7.0820  -7.0717  -3.5129   2.4440   6.0353   6.3925

          k = 0.6250-0.3750 0.6250 (  2519 PWs)   bands (ev):

   -27.7871 -27.7742 -27.7726 -27.7479 -27.7355  -7.2105  -7.1259  -7.1208
    -7.0734  -7.0656  -3.0290   1.4520   5.6257   6.3810

          k = 0.5000-0.2500 0.5000 (  2520 PWs)   bands (ev):

   -27.7760 -27.7742 -27.7723 -27.7532 -27.7420  -7.2030  -7.1259  -7.1253
    -7.0731  -7.0687  -3.1489   1.6805   5.5054   6.6285

          k = 0.3750-0.1250 0.3750 (  2534 PWs)   bands (ev):

   -27.7921 -27.7845 -27.7729 -27.7572 -27.7535  -7.1882  -7.1371  -7.1298
    -7.0755  -7.0755  -3.7215   2.9447   5.7439   7.0562

          k = 0.2500 0.0000 0.2500 (  2541 PWs)   bands (ev):

   -27.7881 -27.7780 -27.7753 -27.7710 -27.7595  -7.1688  -7.1422  -7.1331
    -7.0834  -7.0744  -4.2493   4.5133   6.4638   7.4654

          k = 0.0000 0.5000 0.0000 (  2525 PWs)   bands (ev):

   -27.7727 -27.7722 -27.7722 -27.7609 -27.7493  -7.1924  -7.1231  -7.1231
    -7.0813  -7.0712  -3.8348   3.5812   6.1603   6.1603

          k =-0.1250 0.6250-0.1250 (  2530 PWs)   bands (ev):

   -27.7838 -27.7794 -27.7715 -27.7625 -27.7496  -7.2110  -7.1179  -7.1144
    -7.0887  -7.0707  -3.3414   2.5039   5.4679   5.8493

          k = 0.7500-0.2500 0.7500 (  2522 PWs)   bands (ev):

   -27.7833 -27.7749 -27.7657 -27.7575 -27.7419  -7.2167  -7.1167  -7.1116
    -7.0850  -7.0675  -2.8316   1.6040   4.6848   5.8309

          k = 0.6250-0.1250 0.6250 (  2534 PWs)   bands (ev):

   -27.7897 -27.7771 -27.7745 -27.7650 -27.7578  -7.2161  -7.1235  -7.1179
    -7.0828  -7.0737  -2.7539   1.4948   4.2969   6.1070

          k = 0.5000 0.0000 0.5000 (  2529 PWs)   bands (ev):

   -27.7850 -27.7830 -27.7697 -27.7564 -27.7523  -7.2020  -7.1271  -7.1256
    -7.0765  -7.0745  -3.1973   2.1743   4.5763   6.5936

          k = 0.0000 0.7500 0.0000 (  2514 PWs)   bands (ev):

   -27.7682 -27.7676 -27.7569 -27.7569 -27.7467  -7.2195  -7.1039  -7.1039
    -7.0961  -7.0626  -2.9687   1.9048   5.4739   5.4739

          k = 0.8750-0.1250 0.8750 (  2522 PWs)   bands (ev):

   -27.7914 -27.7705 -27.7627 -27.7577 -27.7435  -7.2327  -7.1048  -7.0992
    -7.0955  -7.0654  -2.5728   1.3369   4.8233   5.3925

          k = 0.7500 0.0000 0.7500 (  2522 PWs)   bands (ev):

   -27.7849 -27.7725 -27.7577 -27.7566 -27.7491  -7.2236  -7.1121  -7.1029
    -7.0911  -7.0668  -2.4731   1.2685   4.1244   5.6256

          k = 0.0000-1.0000 0.0000 (  2498 PWs)   bands (ev):

   -27.7798 -27.7694 -27.7348 -27.7347 -27.7347  -7.2311  -7.1036  -7.0893
    -7.0893  -7.0568  -2.4367   1.0992   5.2323   5.2323

          k =-0.2500 0.5000 0.0000 (  2536 PWs)   bands (ev):

   -27.7869 -27.7806 -27.7741 -27.7681 -27.7579  -7.1958  -7.1279  -7.1238
    -7.0849  -7.0763  -3.6602   3.0557   5.4898   6.5135

          k = 0.6250-0.3750 0.8750 (  2527 PWs)   bands (ev):

   -27.7843 -27.7779 -27.7626 -27.7594 -27.7536  -7.2061  -7.1241  -7.1182
    -7.0816  -7.0726  -3.0959   1.9559   4.8533   6.1124

          k = 0.5000-0.2500 0.7500 (  2526 PWs)   bands (ev):

   -27.7860 -27.7712 -27.7696 -27.7639 -27.7459  -7.2152  -7.1234  -7.1144
    -7.0810  -7.0696  -2.7903   1.4284   4.6754   5.9275

          k = 0.7500-0.2500 1.0000 (  2522 PWs)   bands (ev):

   -27.7842 -27.7699 -27.7649 -27.7560 -27.7479  -7.2202  -7.1113  -7.1058
    -7.0900  -7.0694  -2.8713   1.7861   4.8845   5.4241

          k = 0.6250-0.1250 0.8750 (  2525 PWs)   bands (ev):

   -27.7825 -27.7779 -27.7675 -27.7579 -27.7477  -7.2215  -7.1182  -7.1032
    -7.0886  -7.0706  -2.5309   1.3566   4.3025   5.2578

          k = 0.5000 0.0000 0.7500 (  2529 PWs)   bands (ev):

   -27.7855 -27.7770 -27.7643 -27.7611 -27.7585  -7.2165  -7.1221  -7.1095
    -7.0856  -7.0734  -2.6529   1.5095   4.1681   5.5761

          k =-0.2500-1.0000 0.0000 (  2522 PWs)   bands (ev):

   -27.7833 -27.7818 -27.7588 -27.7565 -27.7445  -7.2299  -7.1063  -7.1031
    -7.0912  -7.0677  -2.4147   1.1767   4.7941   4.8907

          k =-0.5000-1.0000 0.0000 (  2520 PWs)   bands (ev):

   -27.7762 -27.7759 -27.7731 -27.7489 -27.7454  -7.2222  -7.1193  -7.1018
    -7.0863  -7.0676  -2.3922   1.2633   4.4266   4.6162

     highest occupied level (ev):     7.7249

!    total energy              =    -364.54160813 Ry
     estimated scf accuracy    <          2.4E-09 Ry

     The total energy is the sum of the following terms:
     one-electron contribution =    -198.65771616 Ry
     hartree contribution      =     116.57963762 Ry
     xc contribution           =     -87.74033837 Ry
     ewald contribution        =    -194.72319122 Ry

     convergence has been achieved in   8 iterations

     Forces acting on atoms (cartesian axes, Ry/au):

     atom    1 type  1   force =     0.00000000    0.00000000    0.00000000
     atom    2 type  2   force =    -0.00000000   -0.00000000   -0.00000000
     The non-local contrib.  to forces
     atom    1 type  1   force =    -0.00000000    0.00000000   -0.00000000
     atom    2 type  2   force =     0.00000000    0.00000000    0.00000000
     The ionic contribution  to forces
     atom    1 type  1   force =    -0.00000000   -0.00000000   -0.00000000
     atom    2 type  2   force =     0.00000000    0.00000000    0.00000000
     The local contribution  to forces
     atom    1 type  1   force =    -0.00000000    0.00000000    0.00000000
     atom    2 type  2   force =     0.00000000    0.00000000    0.00000000
     The core correction contribution to forces
     atom    1 type  1   force =    -0.00000000    0.00000000    0.00000000
     atom    2 type  2   force =    -0.00000000    0.00000000   -0.00000000
     The Hubbard contrib.    to forces
     atom    1 type  1   force =     0.00000000    0.00000000    0.00000000
     atom    2 type  2   force =     0.00000000    0.00000000    0.00000000
     The SCF correction term to forces
     atom    1 type  1   force =     0.00000000    0.00000000   -0.00000000
     atom    2 type  2   force =     0.00000000    0.00000000   -0.00000000

     Total force =     0.000000     Total SCF correction =     0.000000


     Computing stress (Cartesian axis) and pressure

          total   stress  (Ry/bohr**3)                   (kbar)     P=     -842.44
  -0.00572679   0.00000000  -0.00000000         -842.44        0.00       -0.00
  -0.00000000  -0.00572679  -0.00000000           -0.00     -842.44       -0.00
   0.00000000  -0.00000000  -0.00572679            0.00       -0.00     -842.44


     BFGS Geometry Optimization
     Energy error            =      0.0E+00 Ry
     Gradient error          =      3.6E-31 Ry/Bohr
     Cell gradient error     =      8.4E+02 kbar

     number of scf cycles    =   1
     number of bfgs steps    =   0

     enthalpy           new  =    -364.5416081290 Ry

     new trust radius        =       0.5000000000 bohr
     new conv_thr            =       0.0000000100 Ry

     new unit-cell volume =    205.49711 a.u.^3 (    30.45153 Ang^3 )
     density =      7.88757 g/cm^3

CELL_PARAMETERS (alat= 10.88309345)
  -0.430367583  -0.000000000   0.430367583
  -0.000000000   0.430367583   0.430367583
  -0.430367583   0.430367583  -0.000000000

ATOMIC_POSITIONS (alat)
Ga            0.0000000000        0.0000000000        0.0000000000
As            0.2151837914        0.2151837914        0.2151837914



     Writing config-only to output data dir ./SCRATCH/gallium_arsenide.save/
     NEW-OLD atomic charge density approx. for the potential

     negative rho (up, down):  3.463E-01 0.000E+00
     extrapolated charge   12.09271, renormalised to   28.00000

     total cpu time spent up to now is       24.5 secs

     Self-consistent Calculation

     iteration #  1     ecut=    60.00 Ry     beta= 0.70
     Davidson diagonalization with overlap
     ethr =  1.00E-06,  avg # of iterations = 14.0

     total cpu time spent up to now is       30.6 secs

     total energy              =    -340.43225116 Ry
     estimated scf accuracy    <      39.25886546 Ry

     iteration #  2     ecut=    60.00 Ry     beta= 0.70
     Davidson diagonalization with overlap
     ethr =  1.00E-02,  avg # of iterations =  5.6

     total cpu time spent up to now is       33.5 secs

     total energy              =    -362.77506173 Ry
     estimated scf accuracy    <       9.98292037 Ry

     iteration #  3     ecut=    60.00 Ry     beta= 0.70
     Davidson diagonalization with overlap
     ethr =  1.00E-02,  avg # of iterations =  3.2

     total cpu time spent up to now is       35.5 secs

     total energy              =    -364.49982346 Ry
     estimated scf accuracy    <       0.25179649 Ry

     iteration #  4     ecut=    60.00 Ry     beta= 0.70
     Davidson diagonalization with overlap
     ethr =  8.99E-04,  avg # of iterations =  3.0

     total cpu time spent up to now is       37.5 secs

     total energy              =    -364.58298515 Ry
     estimated scf accuracy    <       0.01010834 Ry

     iteration #  5     ecut=    60.00 Ry     beta= 0.70
     Davidson diagonalization with overlap
     ethr =  3.61E-05,  avg # of iterations =  3.6

     total cpu time spent up to now is       39.7 secs

     total energy              =    -364.58455733 Ry
     estimated scf accuracy    <       0.00350609 Ry

     iteration #  6     ecut=    60.00 Ry     beta= 0.70
     Davidson diagonalization with overlap
     ethr =  1.25E-05,  avg # of iterations =  2.7

     total cpu time spent up to now is       41.3 secs

     total energy              =    -364.58532865 Ry
     estimated scf accuracy    <       0.00016237 Ry

     iteration #  7     ecut=    60.00 Ry     beta= 0.70
     Davidson diagonalization with overlap
     ethr =  5.80E-07,  avg # of iterations =  2.1

     total cpu time spent up to now is       43.2 secs

     total energy              =    -364.58535004 Ry
     estimated scf accuracy    <       0.00001786 Ry

     iteration #  8     ecut=    60.00 Ry     beta= 0.70
     Davidson diagonalization with overlap
     ethr =  6.38E-08,  avg # of iterations =  2.9

     total cpu time spent up to now is       44.9 secs

     total energy              =    -364.58535435 Ry
     estimated scf accuracy    <       0.00000058 Ry

     iteration #  9     ecut=    60.00 Ry     beta= 0.70
     Davidson diagonalization with overlap
     ethr =  2.09E-09,  avg # of iterations =  3.2

     total cpu time spent up to now is       46.9 secs

     total energy              =    -364.58535456 Ry
     estimated scf accuracy    <       0.00000005 Ry

     iteration # 10     ecut=    60.00 Ry     beta= 0.70
     Davidson diagonalization with overlap
     ethr =  1.87E-10,  avg # of iterations =  2.3

     total cpu time spent up to now is       48.7 secs

     End of self-consistent calculation

          k = 0.0000 0.0000 0.0000 (  2637 PWs)   bands (ev):

   -20.9090 -20.9090 -20.9090 -20.8659 -20.8659  -0.9958  -0.9035  -0.9035
    -0.9035  -0.6594  -0.6594  15.4403  15.4403  19.0513

          k =-0.1452 0.1452-0.1452 (  2550 PWs)   bands (ev):

   -20.9089 -20.9084 -20.9084 -20.8657 -20.8657  -1.1026  -0.8914  -0.8914
    -0.6608  -0.6608  -0.5411  13.1958  14.9931  14.9931

          k =-0.2904 0.2904-0.2904 (  2541 PWs)   bands (ev):

   -20.9087 -20.9069 -20.9069 -20.8652 -20.8652  -1.1762  -0.8659  -0.8659
    -0.6607  -0.6607   0.2884  10.0183  14.2510  14.2510

          k =-0.4357 0.4357-0.4357 (  2530 PWs)   bands (ev):

   -20.9085 -20.9055 -20.9055 -20.8646 -20.8646  -1.2267  -0.8469  -0.8469
    -0.6535  -0.6535   1.4998   7.2779  13.7189  13.7189

          k = 0.5809-0.5809 0.5809 (  2512 PWs)   bands (ev):

   -20.9084 -20.9049 -20.9049 -20.8643 -20.8643  -1.2457  -0.8413  -0.8413
    -0.6481  -0.6481   2.3678   5.8876  13.5324  13.5324

          k = 0.0000 0.2904 0.0000 (  2549 PWs)   bands (ev):

   -20.9098 -20.9077 -20.9077 -20.8663 -20.8650  -1.1154  -0.8805  -0.8805
    -0.6824  -0.6541  -0.4431  13.6776  14.2030  14.2030

          k =-0.1452 0.4357-0.1452 (  2544 PWs)   bands (ev):

   -20.9100 -20.9064 -20.9062 -20.8664 -20.8641  -1.1669  -0.8602  -0.8535
    -0.6891  -0.6498   0.1956  11.0409  13.4066  13.6305

          k =-0.2904 0.5809-0.2904 (  2530 PWs)   bands (ev):

   -20.9092 -20.9054 -20.9047 -20.8660 -20.8636  -1.2126  -0.8436  -0.8313
    -0.6836  -0.6453   1.2889   8.2315  12.7790  12.9691

          k = 0.7261-0.4357 0.7261 (  2519 PWs)   bands (ev):

   -20.9083 -20.9052 -20.9041 -20.8651 -20.8637  -1.2375  -0.8365  -0.8242
    -0.6674  -0.6464   2.4349   6.2611  12.1162  12.9873

          k = 0.5809-0.2904 0.5809 (  2520 PWs)   bands (ev):

   -20.9079 -20.9053 -20.9047 -20.8645 -20.8644  -1.2312  -0.8369  -0.8300
    -0.6592  -0.6574   2.1147   6.7560  11.8355  13.4452

          k = 0.4357-0.1452 0.4357 (  2534 PWs)   bands (ev):

   -20.9085 -20.9062 -20.9058 -20.8654 -20.8644  -1.1968  -0.8499  -0.8464
    -0.6709  -0.6586   0.8859   9.1273  12.0365  14.2218

          k = 0.2904 0.0000 0.2904 (  2541 PWs)   bands (ev):

   -20.9090 -20.9077 -20.9069 -20.8659 -20.8649  -1.1486  -0.8773  -0.8680
    -0.6694  -0.6609  -0.0698  11.7767  12.9956  14.9825

          k = 0.0000 0.5809 0.0000 (  2525 PWs)   bands (ev):

   -20.9116 -20.9045 -20.9045 -20.8674 -20.8628  -1.1907  -0.8221  -0.8221
    -0.7234  -0.6415   0.6249  10.8808  12.5249  12.5249

          k =-0.1452 0.7261-0.1452 (  2530 PWs)   bands (ev):

   -20.9118 -20.9033 -20.9029 -20.8676 -20.8620  -1.2198  -0.8053  -0.7939
    -0.7304  -0.6364   1.5425   8.9553  11.4478  12.0157

          k = 0.8713-0.2904 0.8713 (  2522 PWs)   bands (ev):

   -20.9102 -20.9035 -20.9023 -20.8668 -20.8621  -1.2350  -0.8118  -0.7834
    -0.7102  -0.6407   2.7098   7.0484  10.2665  12.0057

          k = 0.7261-0.1452 0.7261 (  2534 PWs)   bands (ev):

   -20.9080 -20.9050 -20.9030 -20.8656 -20.8633  -1.2321  -0.8213  -0.7912
    -0.6854  -0.6577   2.9747   6.7217   9.5985  12.4960

          k = 0.5809 0.0000 0.5809 (  2529 PWs)   bands (ev):

   -20.9072 -20.9060 -20.9045 -20.8647 -20.8645  -1.2161  -0.8311  -0.8170
    -0.6720  -0.6683   1.9091   8.1878   9.8971  13.3635

          k = 0.0000 0.8713 0.0000 (  2514 PWs)   bands (ev):

   -20.9134 -20.9013 -20.9013 -20.8687 -20.8606  -1.2429  -0.7682  -0.7593
    -0.7593  -0.6288   2.2538   8.0439  11.3863  11.3863

          k = 1.0166-0.1452 1.0166 (  2522 PWs)   bands (ev):

   -20.9130 -20.9010 -20.9006 -20.8685 -20.8605  -1.2520  -0.7846  -0.7457
    -0.7376  -0.6303   3.2337   6.8415  10.2136  11.2583

          k = 0.8713 0.0000 0.8713 (  2522 PWs)   bands (ev):

   -20.9106 -20.9026 -20.9013 -20.8673 -20.8616  -1.2430  -0.7999  -0.7567
    -0.7174  -0.6450   3.6463   6.5669   8.9625  11.6597

          k = 0.0000-1.1618-0.0000 (  2498 PWs)   bands (ev):

   -20.9142 -20.8999 -20.8999 -20.8692 -20.8597  -1.2628  -0.7873  -0.7319
    -0.7319  -0.6236   3.6216   6.2369  10.9888  10.9888

          k =-0.2904 0.5809 0.0000 (  2536 PWs)   bands (ev):

   -20.9101 -20.9050 -20.9047 -20.8666 -20.8633  -1.1981  -0.8360  -0.8271
    -0.7011  -0.6467   0.9692   9.7278  11.3882  13.2637

          k = 0.7261-0.4357 1.0166 (  2527 PWs)   bands (ev):

   -20.9089 -20.9051 -20.9032 -20.8661 -20.8631  -1.2236  -0.8254  -0.8061
    -0.6936  -0.6485   2.1218   7.6445  10.5883  12.4730

          k = 0.5809-0.2904 0.8713 (  2526 PWs)   bands (ev):

   -20.9076 -20.9060 -20.9026 -20.8656 -20.8632  -1.2338  -0.8247  -0.7982
    -0.6822  -0.6532   2.9321   6.4144  10.4522  12.1025

          k = 0.8713-0.2904 1.1618 (  2522 PWs)   bands (ev):

   -20.9115 -20.9029 -20.9014 -20.8677 -20.8614  -1.2360  -0.7873  -0.7829
    -0.7263  -0.6371   2.5238   7.7668  10.3801  11.2077

          k = 0.7261-0.1452 1.0166 (  2525 PWs)   bands (ev):

   -20.9095 -20.9045 -20.9008 -20.8669 -20.8619  -1.2381  -0.8001  -0.7736
    -0.7054  -0.6494   3.4674   6.7534   9.3757  10.9167

          k = 0.5809 0.0000 0.8713 (  2529 PWs)   bands (ev):

   -20.9072 -20.9066 -20.9015 -20.8661 -20.8628  -1.2317  -0.8126  -0.7814
    -0.6930  -0.6586   3.1574   7.0724   9.1334  11.4920

          k =-0.2904-1.1618-0.0000 (  2522 PWs)   bands (ev):

   -20.9122 -20.9020 -20.9000 -20.8682 -20.8607  -1.2507  -0.7824  -0.7616
    -0.7185  -0.6362   3.7444   6.4087  10.2113  10.2588

          k =-0.5809-1.1618-0.0000 (  2520 PWs)   bands (ev):

   -20.9075 -20.9068 -20.9000 -20.8668 -20.8620  -1.2373  -0.7923  -0.7788
    -0.6942  -0.6585   3.8762   6.6259   9.5413   9.6903

     highest occupied level (ev):    19.0513

!    total energy              =    -364.58535457 Ry
     estimated scf accuracy    <          3.9E-09 Ry

     The total energy is the sum of the following terms:
     one-electron contribution =    -148.29030842 Ry
     hartree contribution      =      98.37990624 Ry
     xc contribution           =     -88.44602744 Ry
     ewald contribution        =    -226.22892495 Ry

     convergence has been achieved in  10 iterations

     Forces acting on atoms (cartesian axes, Ry/au):

     atom    1 type  1   force =     0.00000000    0.00000000   -0.00000000
     atom    2 type  2   force =     0.00000000    0.00000000   -0.00000000
     The non-local contrib.  to forces
     atom    1 type  1   force =    -0.00000000    0.00000000   -0.00000000
     atom    2 type  2   force =    -0.00000000   -0.00000000    0.00000000
     The ionic contribution  to forces
     atom    1 type  1   force =    -0.00000000    0.00000000    0.00000000
     atom    2 type  2   force =     0.00000000   -0.00000000   -0.00000000
     The local contribution  to forces
     atom    1 type  1   force =    -0.00000000    0.00000000    0.00000000
     atom    2 type  2   force =    -0.00000000    0.00000000    0.00000000
     The core correction contribution to forces
     atom    1 type  1   force =    -0.00000000    0.00000000    0.00000000
     atom    2 type  2   force =    -0.00000000    0.00000000    0.00000000
     The Hubbard contrib.    to forces
     atom    1 type  1   force =     0.00000000    0.00000000    0.00000000
     atom    2 type  2   force =     0.00000000    0.00000000    0.00000000
     The SCF correction term to forces
     atom    1 type  1   force =    -0.00000000    0.00000000    0.00000000
     atom    2 type  2   force =     0.00000000    0.00000000   -0.00000000

     Total force =     0.000000     Total SCF correction =     0.000000


     Computing stress (Cartesian axis) and pressure

          total   stress  (Ry/bohr**3)                   (kbar)     P=      621.32
   0.00422367  -0.00000000  -0.00000000          621.32       -0.00       -0.00
   0.00000000   0.00422367   0.00000000            0.00      621.32        0.00
  -0.00000000   0.00000000   0.00422367           -0.00        0.00      621.32

     Energy error            =      4.4E-02 Ry
     Gradient error          =      6.1E-31 Ry/Bohr
     Cell gradient error     =      6.2E+02 kbar

     number of scf cycles    =   2
     number of bfgs steps    =   1

     enthalpy           old  =    -364.5416081290 Ry
     enthalpy           new  =    -364.5853545711 Ry

     CASE: enthalpy          _new < enthalpy          _old

     new trust radius        =       0.1639073712 bohr
     new conv_thr            =            1.0E-10 Ry

     new unit-cell volume =    242.79503 a.u.^3 (    35.97851 Ang^3 )
     density =      6.67589 g/cm^3

CELL_PARAMETERS (alat= 10.88309345)
  -0.454971552  -0.000000000   0.454971552
  -0.000000000   0.454971552   0.454971552
  -0.454971552   0.454971552   0.000000000

ATOMIC_POSITIONS (alat)
Ga            0.0000000000        0.0000000000       -0.0000000000
As            0.2274857761        0.2274857761        0.2274857761



     Writing config-only to output data dir ./SCRATCH/gallium_arsenide.save/
     NEW-OLD atomic charge density approx. for the potential

     negative rho (up, down):  8.718E-07 0.000E+00
     extrapolated charge   32.30098, renormalised to   28.00000

     total cpu time spent up to now is       54.4 secs

     Self-consistent Calculation

     iteration #  1     ecut=    60.00 Ry     beta= 0.70
     Davidson diagonalization with overlap
     c_bands:  1 eigenvalues not converged
     c_bands:  1 eigenvalues not converged
     c_bands:  1 eigenvalues not converged
     c_bands:  1 eigenvalues not converged
     ethr =  1.00E-06,  avg # of iterations = 16.6

     negative rho (up, down):  1.600E-07 0.000E+00

     total cpu time spent up to now is       61.8 secs

     total energy              =    -357.65837618 Ry
     estimated scf accuracy    <       4.18406483 Ry

     iteration #  2     ecut=    60.00 Ry     beta= 0.70
     Davidson diagonalization with overlap
     ethr =  1.00E-02,  avg # of iterations =  4.2

     total cpu time spent up to now is       64.7 secs

     total energy              =    -365.24681539 Ry
     estimated scf accuracy    <       5.85234994 Ry

     iteration #  3     ecut=    60.00 Ry     beta= 0.70
     Davidson diagonalization with overlap
     ethr =  1.00E-02,  avg # of iterations =  2.0

     total cpu time spent up to now is       66.4 secs

     total energy              =    -364.87175886 Ry
     estimated scf accuracy    <       1.67519497 Ry

     iteration #  4     ecut=    60.00 Ry     beta= 0.70
     Davidson diagonalization with overlap
     ethr =  5.98E-03,  avg # of iterations =  1.1

     negative rho (up, down):  7.367E-08 0.000E+00

     total cpu time spent up to now is       67.8 secs

     total energy              =    -364.77440024 Ry
     estimated scf accuracy    <       0.58607688 Ry

     iteration #  5     ecut=    60.00 Ry     beta= 0.70
     Davidson diagonalization with overlap
     ethr =  2.09E-03,  avg # of iterations =  2.0

     negative rho (up, down):  1.391E-07 0.000E+00

     total cpu time spent up to now is       69.3 secs

     total energy              =    -364.73052826 Ry
     estimated scf accuracy    <       0.26529354 Ry

     iteration #  6     ecut=    60.00 Ry     beta= 0.70
     Davidson diagonalization with overlap
     ethr =  9.47E-04,  avg # of iterations =  1.4

     negative rho (up, down):  9.759E-08 0.000E+00

     total cpu time spent up to now is       70.7 secs

     total energy              =    -364.71322660 Ry
     estimated scf accuracy    <       0.12952250 Ry

     iteration #  7     ecut=    60.00 Ry     beta= 0.70
     Davidson diagonalization with overlap
     ethr =  4.63E-04,  avg # of iterations =  1.1

     negative rho (up, down):  1.129E-07 0.000E+00

     total cpu time spent up to now is       72.2 secs

     total energy              =    -364.72215777 Ry
     estimated scf accuracy    <       0.07604678 Ry

     iteration #  8     ecut=    60.00 Ry     beta= 0.70
     Davidson diagonalization with overlap
     ethr =  2.72E-04,  avg # of iterations =  1.0

     negative rho (up, down):  1.233E-07 0.000E+00

     total cpu time spent up to now is       73.5 secs

     total energy              =    -364.71695914 Ry
     estimated scf accuracy    <       0.08094985 Ry

     iteration #  9     ecut=    60.00 Ry     beta= 0.70
     Davidson diagonalization with overlap
     ethr =  2.72E-04,  avg # of iterations =  1.0

     negative rho (up, down):  1.348E-07 0.000E+00

     total cpu time spent up to now is       74.9 secs

     total energy              =    -364.71730217 Ry
     estimated scf accuracy    <       0.06797861 Ry

     iteration # 10     ecut=    60.00 Ry     beta= 0.70
     Davidson diagonalization with overlap
     ethr =  2.43E-04,  avg # of iterations =  1.0

     total cpu time spent up to now is       76.4 secs

     total energy              =    -364.66499458 Ry
     estimated scf accuracy    <       0.06748555 Ry

     iteration # 11     ecut=    60.00 Ry     beta= 0.70
     Davidson diagonalization with overlap
     ethr =  2.41E-04,  avg # of iterations =  2.1

     total cpu time spent up to now is       78.2 secs

     total energy              =    -364.68498407 Ry
     estimated scf accuracy    <       0.00160619 Ry

     iteration # 12     ecut=    60.00 Ry     beta= 0.70
     Davidson diagonalization with overlap
     ethr =  5.74E-06,  avg # of iterations =  4.0

     total cpu time spent up to now is       80.1 secs

     total energy              =    -364.68519396 Ry
     estimated scf accuracy    <       0.00214875 Ry

     iteration # 13     ecut=    60.00 Ry     beta= 0.70
     Davidson diagonalization with overlap
     ethr =  5.74E-06,  avg # of iterations =  1.0

     total cpu time spent up to now is       81.5 secs

     total energy              =    -364.68426976 Ry
     estimated scf accuracy    <       0.00177217 Ry

     iteration # 14     ecut=    60.00 Ry     beta= 0.70
     Davidson diagonalization with overlap
     ethr =  5.74E-06,  avg # of iterations =  2.0

     total cpu time spent up to now is       83.2 secs

     total energy              =    -364.68439034 Ry
     estimated scf accuracy    <       0.00023150 Ry

     iteration # 15     ecut=    60.00 Ry     beta= 0.70
     Davidson diagonalization with overlap
     ethr =  8.27E-07,  avg # of iterations =  2.1

     total cpu time spent up to now is       84.8 secs

     total energy              =    -364.68445832 Ry
     estimated scf accuracy    <       0.00009002 Ry

     iteration # 16     ecut=    60.00 Ry     beta= 0.70
     Davidson diagonalization with overlap
     ethr =  3.22E-07,  avg # of iterations =  2.1

     total cpu time spent up to now is       86.5 secs

     total energy              =    -364.68441836 Ry
     estimated scf accuracy    <       0.00019810 Ry

     iteration # 17     ecut=    60.00 Ry     beta= 0.70
     Davidson diagonalization with overlap
     ethr =  3.22E-07,  avg # of iterations =  2.0

     total cpu time spent up to now is       88.2 secs

     total energy              =    -364.68446860 Ry
     estimated scf accuracy    <       0.00010861 Ry

     iteration # 18     ecut=    60.00 Ry     beta= 0.70
     Davidson diagonalization with overlap
     ethr =  3.22E-07,  avg # of iterations =  1.5

     total cpu time spent up to now is       89.6 secs

     total energy              =    -364.68432486 Ry
     estimated scf accuracy    <       0.00019315 Ry

     iteration # 19     ecut=    60.00 Ry     beta= 0.70
     Davidson diagonalization with overlap
     ethr =  3.22E-07,  avg # of iterations =  3.1

     total cpu time spent up to now is       91.8 secs

     total energy              =    -364.68438374 Ry
     estimated scf accuracy    <       0.00000547 Ry

     iteration # 20     ecut=    60.00 Ry     beta= 0.70
     Davidson diagonalization with overlap
     ethr =  1.95E-08,  avg # of iterations =  3.9

     total cpu time spent up to now is       94.0 secs

     total energy              =    -364.68497287 Ry
     estimated scf accuracy    <       0.00002484 Ry

     iteration # 21     ecut=    60.00 Ry     beta= 0.70
     Davidson diagonalization with overlap
     ethr =  1.95E-08,  avg # of iterations =  3.2

     total cpu time spent up to now is       96.1 secs

     total energy              =    -364.68497695 Ry
     estimated scf accuracy    <       0.00000039 Ry

     iteration # 22     ecut=    60.00 Ry     beta= 0.70
     Davidson diagonalization with overlap
     ethr =  1.39E-09,  avg # of iterations =  4.0

     total cpu time spent up to now is       98.2 secs

     total energy              =    -364.68497707 Ry
     estimated scf accuracy    <       0.00000012 Ry

     iteration # 23     ecut=    60.00 Ry     beta= 0.70
     Davidson diagonalization with overlap
     ethr =  4.16E-10,  avg # of iterations =  3.6

     total cpu time spent up to now is      100.1 secs

     total energy              =    -364.68497706 Ry
     estimated scf accuracy    <       0.00000013 Ry

     iteration # 24     ecut=    60.00 Ry     beta= 0.70
     Davidson diagonalization with overlap
     ethr =  4.16E-10,  avg # of iterations =  2.0

     total cpu time spent up to now is      101.9 secs

     total energy              =    -364.68497706 Ry
     estimated scf accuracy    <       0.00000001 Ry

     iteration # 25     ecut=    60.00 Ry     beta= 0.70
     Davidson diagonalization with overlap
     ethr =  3.68E-11,  avg # of iterations =  3.9

     total cpu time spent up to now is      103.8 secs

     total energy              =    -364.68497707 Ry
     estimated scf accuracy    <          2.7E-10 Ry

     iteration # 26     ecut=    60.00 Ry     beta= 0.70
     Davidson diagonalization with overlap
     ethr =  9.51E-13,  avg # of iterations =  3.2

     total cpu time spent up to now is      105.6 secs

     End of self-consistent calculation

          k = 0.0000 0.0000 0.0000 (  2637 PWs)   bands (ev):

   -23.6432 -23.6432 -23.6432 -23.6181 -23.6181  -3.3978  -3.3978  -3.3978
    -3.2420  -3.2420  -2.5381  12.1383  12.1383  12.1383

          k =-0.1374 0.1374-0.1374 (  2550 PWs)   bands (ev):

   -23.6412 -23.6406 -23.6406 -23.6158 -23.6158  -3.4449  -3.3898  -3.3898
    -3.2422  -3.2422  -2.2728  10.0884  11.7975  11.7975

          k =-0.2747 0.2747-0.2747 (  2541 PWs)   bands (ev):

   -23.6406 -23.6400 -23.6400 -23.6158 -23.6158  -3.5197  -3.3739  -3.3739
    -3.2418  -3.2418  -1.5643   7.3529  11.1989  11.1989

          k =-0.4121 0.4121-0.4121 (  2530 PWs)   bands (ev):

   -23.6405 -23.6391 -23.6391 -23.6153 -23.6153  -3.5724  -3.3617  -3.3617
    -3.2374  -3.2374  -0.5836   5.0619  10.7561  10.7561

          k = 0.5495-0.5495 0.5495 (  2512 PWs)   bands (ev):

   -23.6406 -23.6382 -23.6382 -23.6148 -23.6148  -3.5912  -3.3578  -3.3578
    -3.2341  -3.2341   0.0423   3.9879  10.5994  10.5994

          k = 0.0000 0.2747 0.0000 (  2549 PWs)   bands (ev):

   -23.6410 -23.6405 -23.6405 -23.6164 -23.6156  -3.4618  -3.3829  -3.3829
    -3.2494  -3.2381  -2.1893  10.2990  11.1893  11.1893

          k =-0.1374 0.4121-0.1374 (  2544 PWs)   bands (ev):

   -23.6415 -23.6400 -23.6397 -23.6162 -23.6153  -3.5178  -3.3698  -3.3663
    -3.2555  -3.2352  -1.6362   8.1426  10.5376  10.6099

          k =-0.2747 0.5495-0.2747 (  2530 PWs)   bands (ev):

   -23.6410 -23.6391 -23.6381 -23.6162 -23.6148  -3.5663  -3.3591  -3.3521
    -3.2537  -3.2322  -0.7336   5.8084   9.8791  10.1673

          k = 0.6869-0.4121 0.6869 (  2519 PWs)   bands (ev):

   -23.6409 -23.6384 -23.6376 -23.6153 -23.6144  -3.5909  -3.3542  -3.3474
    -3.2448  -3.2329   0.1233   4.2561   9.3304  10.1708

          k = 0.5495-0.2747 0.5495 (  2520 PWs)   bands (ev):

   -23.6401 -23.6385 -23.6385 -23.6151 -23.6147  -3.5845  -3.3545  -3.3515
    -3.2405  -3.2387  -0.1034   4.6303   9.1202  10.5360

          k = 0.4121-0.1374 0.4121 (  2534 PWs)   bands (ev):

   -23.6406 -23.6400 -23.6390 -23.6154 -23.6153  -3.5490  -3.3644  -3.3609
    -3.2475  -3.2389  -1.0625   6.5454   9.3385  11.1599

          k = 0.2747 0.0000 0.2747 (  2541 PWs)   bands (ev):

   -23.6408 -23.6405 -23.6394 -23.6164 -23.6150  -3.4939  -3.3813  -3.3746
    -3.2471  -3.2400  -1.8671   8.7570  10.2168  11.7651

          k = 0.0000 0.5495 0.0000 (  2525 PWs)   bands (ev):

   -23.6418 -23.6385 -23.6385 -23.6159 -23.6142  -3.5505  -3.3470  -3.3470
    -3.2722  -3.2296  -1.2613   7.7896   9.8157   9.8157

          k =-0.1374 0.6869-0.1374 (  2530 PWs)   bands (ev):

   -23.6424 -23.6378 -23.6373 -23.6166 -23.6142  -3.5835  -3.3350  -3.3297
    -3.2782  -3.2264  -0.5013   6.2217   8.8858   9.3904

          k = 0.8242-0.2747 0.8242 (  2522 PWs)   bands (ev):

   -23.6416 -23.6375 -23.6368 -23.6163 -23.6140  -3.5997  -3.3371  -3.3232
    -3.2689  -3.2288   0.3896   4.7540   7.8581   9.3761

          k = 0.6869-0.1374 0.6869 (  2534 PWs)   bands (ev):

   -23.6408 -23.6386 -23.6378 -23.6161 -23.6146  -3.5968  -3.3435  -3.3282
    -3.2550  -3.2390   0.5624   4.5342   7.3071   9.7736

          k = 0.5495 0.0000 0.5495 (  2529 PWs)   bands (ev):

   -23.6398 -23.6391 -23.6390 -23.6152 -23.6151  -3.5777  -3.3506  -3.3443
    -3.2477  -3.2441  -0.2312   5.6407   7.6188  10.4759

          k = 0.0000 0.8242 0.0000 (  2514 PWs)   bands (ev):

   -23.6425 -23.6363 -23.6363 -23.6173 -23.6127  -3.6084  -3.3091  -3.3091
    -3.2974  -3.2211   0.0839   5.4134   8.8698   8.8698

          k = 0.9616-0.1374 0.9616 (  2522 PWs)   bands (ev):

   -23.6434 -23.6362 -23.6357 -23.6173 -23.6131  -3.6189  -3.3137  -3.3009
    -3.2900  -3.2219   0.8142   4.4811   7.9211   8.7616

          k = 0.8242 0.0000 0.8242 (  2522 PWs)   bands (ev):

   -23.6418 -23.6369 -23.6362 -23.6170 -23.6132  -3.6113  -3.3276  -3.3076
    -3.2749  -3.2306   1.0636   4.3158   6.9070   9.0904

          k =-0.0000-1.0990-0.0000 (  2498 PWs)   bands (ev):

   -23.6430 -23.6347 -23.6347 -23.6181 -23.6119  -3.6285  -3.3082  -3.2926
    -3.2926  -3.2176   1.0836   4.0500   8.5393   8.5393

          k =-0.2747 0.5495 0.0000 (  2536 PWs)   bands (ev):

   -23.6416 -23.6388 -23.6384 -23.6165 -23.6151  -3.5569  -3.3548  -3.3494
    -3.2625  -3.2326  -0.9830   6.9177   8.8724  10.3783

          k = 0.6869-0.4121 0.9616 (  2527 PWs)   bands (ev):

   -23.6407 -23.6384 -23.6377 -23.6159 -23.6147  -3.5858  -3.3477  -3.3360
    -3.2593  -3.2336  -0.0636   5.2522   8.1136   9.7638

          k = 0.5495-0.2747 0.8242 (  2526 PWs)   bands (ev):

   -23.6405 -23.6390 -23.6371 -23.6157 -23.6144  -3.5965  -3.3467  -3.3310
    -3.2534  -3.2363   0.5148   4.3416   7.9495   9.4780

          k = 0.8242-0.2747 1.0990 (  2522 PWs)   bands (ev):

   -23.6423 -23.6370 -23.6363 -23.6167 -23.6139  -3.6028  -3.3255  -3.3178
    -3.2796  -3.2264   0.2773   5.2040   8.0351   8.7517

          k = 0.6869-0.1374 0.9616 (  2525 PWs)   bands (ev):

   -23.6412 -23.6384 -23.6358 -23.6167 -23.6139  -3.6070  -3.3314  -3.3135
    -3.2689  -3.2332   0.9446   4.4609   7.2055   8.5119

          k = 0.5495 0.0000 0.8242 (  2529 PWs)   bands (ev):

   -23.6402 -23.6395 -23.6367 -23.6162 -23.6143  -3.5998  -3.3397  -3.3195
    -3.2606  -3.2387   0.7191   4.7038   7.0116   8.9750

          k =-0.2747-1.0990-0.0000 (  2522 PWs)   bands (ev):

   -23.6426 -23.6367 -23.6352 -23.6177 -23.6132  -3.6190  -3.3110  -3.3107
    -3.2804  -3.2253   1.1521   4.1827   7.9032   7.9799

          k =-0.5495-1.0990-0.0000 (  2520 PWs)   bands (ev):

   -23.6402 -23.6395 -23.6354 -23.6167 -23.6134  -3.6083  -3.3302  -3.3120
    -3.2644  -3.2375   1.2236   4.3419   7.3624   7.5435

     highest occupied level (ev):    12.1383

!    total energy              =    -364.68497707 Ry
     estimated scf accuracy    <          4.6E-11 Ry

     The total energy is the sum of the following terms:
     one-electron contribution =    -167.81712352 Ry
     hartree contribution      =     105.32037004 Ry
     xc contribution           =     -88.19331529 Ry
     ewald contribution        =    -213.99490828 Ry

     convergence has been achieved in  26 iterations

     Forces acting on atoms (cartesian axes, Ry/au):

     atom    1 type  1   force =     0.00000000    0.00000000    0.00000000
     atom    2 type  2   force =    -0.00000000   -0.00000000   -0.00000000
     The non-local contrib.  to forces
     atom    1 type  1   force =    -0.00000000    0.00000000    0.00000000
     atom    2 type  2   force =     0.00000000   -0.00000000   -0.00000000
     The ionic contribution  to forces
     atom    1 type  1   force =    -0.00000000    0.00000000    0.00000000
     atom    2 type  2   force =     0.00000000   -0.00000000   -0.00000000
     The local contribution  to forces
     atom    1 type  1   force =     0.00000000    0.00000000   -0.00000000
     atom    2 type  2   force =     0.00000000   -0.00000000    0.00000000
     The core correction contribution to forces
     atom    1 type  1   force =    -0.00000000    0.00000000   -0.00000000
     atom    2 type  2   force =    -0.00000000   -0.00000000    0.00000000
     The Hubbard contrib.    to forces
     atom    1 type  1   force =     0.00000000    0.00000000    0.00000000
     atom    2 type  2   force =     0.00000000    0.00000000    0.00000000
     The SCF correction term to forces
     atom    1 type  1   force =    -0.00000000   -0.00000000    0.00000000
     atom    2 type  2   force =     0.00000000   -0.00000000   -0.00000000

     Total force =     0.000000     Total SCF correction =     0.000000


     Computing stress (Cartesian axis) and pressure

          total   stress  (Ry/bohr**3)                   (kbar)     P=      188.72
   0.00128292   0.00000000  -0.00000000          188.72        0.00       -0.00
   0.00000000   0.00128292   0.00000000            0.00      188.72        0.00
   0.00000000   0.00000000   0.00128292            0.00        0.00      188.72

     Energy error            =      1.0E-01 Ry
     Gradient error          =      1.6E-30 Ry/Bohr
     Cell gradient error     =      1.9E+02 kbar

     number of scf cycles    =   3
     number of bfgs steps    =   2

     enthalpy           old  =    -364.5853545711 Ry
     enthalpy           new  =    -364.6849770659 Ry

     CASE: enthalpy          _new < enthalpy          _old

     new trust radius        =       0.0866113520 bohr
     new conv_thr            =            1.0E-10 Ry

     new unit-cell volume =    263.60638 a.u.^3 (    39.06243 Ang^3 )
     density =      6.14884 g/cm^3

CELL_PARAMETERS (alat= 10.88309345)
  -0.467616271  -0.000000000   0.467616271
  -0.000000000   0.467616271   0.467616271
  -0.467616271   0.467616271   0.000000000

ATOMIC_POSITIONS (alat)
Ga            0.0000000000        0.0000000000       -0.0000000000
As            0.2338081354        0.2338081354        0.2338081354



     Writing config-only to output data dir ./SCRATCH/gallium_arsenide.save/
     NEW-OLD atomic charge density approx. for the potential

     negative rho (up, down):  4.386E-07 0.000E+00
     extrapolated charge   30.21038, renormalised to   28.00000

     total cpu time spent up to now is      111.4 secs

     Self-consistent Calculation

     iteration #  1     ecut=    60.00 Ry     beta= 0.70
     Davidson diagonalization with overlap
     ethr =  1.00E-06,  avg # of iterations =  9.8

     negative rho (up, down):  4.474E-08 0.000E+00

     total cpu time spent up to now is      116.5 secs

     total energy              =    -363.58603024 Ry
     estimated scf accuracy    <       0.57600099 Ry

     iteration #  2     ecut=    60.00 Ry     beta= 0.70
     Davidson diagonalization with overlap
     ethr =  2.06E-03,  avg # of iterations =  4.1

     total cpu time spent up to now is      119.2 secs

     total energy              =    -364.76337470 Ry
     estimated scf accuracy    <       0.82849645 Ry

     iteration #  3     ecut=    60.00 Ry     beta= 0.70
     Davidson diagonalization with overlap
     ethr =  2.06E-03,  avg # of iterations =  1.5

     total cpu time spent up to now is      120.7 secs

     total energy              =    -364.72632707 Ry
     estimated scf accuracy    <       0.22923287 Ry

     iteration #  4     ecut=    60.00 Ry     beta= 0.70
     Davidson diagonalization with overlap
     ethr =  8.19E-04,  avg # of iterations =  1.4

     total cpu time spent up to now is      122.1 secs

     total energy              =    -364.71540797 Ry
     estimated scf accuracy    <       0.09015934 Ry

     iteration #  5     ecut=    60.00 Ry     beta= 0.70
     Davidson diagonalization with overlap
     ethr =  3.22E-04,  avg # of iterations =  1.0

     total cpu time spent up to now is      123.5 secs

     total energy              =    -364.69807857 Ry
     estimated scf accuracy    <       0.04818055 Ry

     iteration #  6     ecut=    60.00 Ry     beta= 0.70
     Davidson diagonalization with overlap
     ethr =  1.72E-04,  avg # of iterations =  2.0

     total cpu time spent up to now is      125.2 secs

     total energy              =    -364.70352127 Ry
     estimated scf accuracy    <       0.01154347 Ry

     iteration #  7     ecut=    60.00 Ry     beta= 0.70
     Davidson diagonalization with overlap
     ethr =  4.12E-05,  avg # of iterations =  1.0

     total cpu time spent up to now is      126.6 secs

     total energy              =    -364.70364796 Ry
     estimated scf accuracy    <       0.01346720 Ry

     iteration #  8     ecut=    60.00 Ry     beta= 0.70
     Davidson diagonalization with overlap
     ethr =  4.12E-05,  avg # of iterations =  1.0

     total cpu time spent up to now is      128.0 secs

     total energy              =    -364.70680802 Ry
     estimated scf accuracy    <       0.01325683 Ry

     iteration #  9     ecut=    60.00 Ry     beta= 0.70
     Davidson diagonalization with overlap
     ethr =  4.12E-05,  avg # of iterations =  1.0

     total cpu time spent up to now is      129.4 secs

     total energy              =    -364.69439714 Ry
     estimated scf accuracy    <       0.01920310 Ry

     iteration # 10     ecut=    60.00 Ry     beta= 0.70
     Davidson diagonalization with overlap
     ethr =  4.12E-05,  avg # of iterations =  2.0

     total cpu time spent up to now is      131.4 secs

     total energy              =    -364.69693984 Ry
     estimated scf accuracy    <       0.00059153 Ry

     iteration # 11     ecut=    60.00 Ry     beta= 0.70
     Davidson diagonalization with overlap
     ethr =  2.11E-06,  avg # of iterations =  4.2

     total cpu time spent up to now is      133.7 secs

     total energy              =    -364.69735552 Ry
     estimated scf accuracy    <       0.00044030 Ry

     iteration # 12     ecut=    60.00 Ry     beta= 0.70
     Davidson diagonalization with overlap
     ethr =  1.57E-06,  avg # of iterations =  1.0

     total cpu time spent up to now is      135.1 secs

     total energy              =    -364.69729595 Ry
     estimated scf accuracy    <       0.00033070 Ry

     iteration # 13     ecut=    60.00 Ry     beta= 0.70
     Davidson diagonalization with overlap
     ethr =  1.18E-06,  avg # of iterations =  1.0

     total cpu time spent up to now is      136.5 secs

     total energy              =    -364.69737926 Ry
     estimated scf accuracy    <       0.00020481 Ry

     iteration # 14     ecut=    60.00 Ry     beta= 0.70
     Davidson diagonalization with overlap
     ethr =  7.31E-07,  avg # of iterations =  1.0

     total cpu time spent up to now is      137.9 secs

     total energy              =    -364.69733826 Ry
     estimated scf accuracy    <       0.00036005 Ry

     iteration # 15     ecut=    60.00 Ry     beta= 0.70
     Davidson diagonalization with overlap
     ethr =  7.31E-07,  avg # of iterations =  1.0

     total cpu time spent up to now is      139.3 secs

     total energy              =    -364.69720390 Ry
     estimated scf accuracy    <       0.00028314 Ry

     iteration # 16     ecut=    60.00 Ry     beta= 0.70
     Davidson diagonalization with overlap
     ethr =  7.31E-07,  avg # of iterations =  2.0

     total cpu time spent up to now is      140.9 secs

     total energy              =    -364.69719873 Ry
     estimated scf accuracy    <       0.00004019 Ry

     iteration # 17     ecut=    60.00 Ry     beta= 0.70
     Davidson diagonalization with overlap
     ethr =  1.44E-07,  avg # of iterations =  4.0

     total cpu time spent up to now is      143.2 secs

     total energy              =    -364.69723905 Ry
     estimated scf accuracy    <       0.00001847 Ry

     iteration # 18     ecut=    60.00 Ry     beta= 0.70
     Davidson diagonalization with overlap
     ethr =  6.60E-08,  avg # of iterations =  2.0

     total cpu time spent up to now is      145.0 secs

     total energy              =    -364.69720810 Ry
     estimated scf accuracy    <       0.00005095 Ry

     iteration # 19     ecut=    60.00 Ry     beta= 0.70
     Davidson diagonalization with overlap
     ethr =  6.60E-08,  avg # of iterations =  3.0

     total cpu time spent up to now is      147.1 secs

     total energy              =    -364.69721876 Ry
     estimated scf accuracy    <       0.00000174 Ry

     iteration # 20     ecut=    60.00 Ry     beta= 0.70
     Davidson diagonalization with overlap
     ethr =  6.20E-09,  avg # of iterations =  4.2

     total cpu time spent up to now is      149.4 secs

     total energy              =    -364.69721776 Ry
     estimated scf accuracy    <       0.00000572 Ry

     iteration # 21     ecut=    60.00 Ry     beta= 0.70
