
     Program PWSCF v.7.2 starts on 11Jun2024 at 11:27:11 

     This program is part of the open-source Quantum ESPRESSO suite
     for quantum simulation of materials; please cite
         "P. Giannozzi et al., J. Phys.:Condens. Matter 21 395502 (2009);
         "P. Giannozzi et al., J. Phys.:Condens. Matter 29 465901 (2017);
         "P. Giannozzi et al., J. Chem. Phys. 152 154105 (2020);
          URL http://www.quantum-espresso.org", 
     in publications or presentations arising from this work. More details at
     http://www.quantum-espresso.org/quote

     Serial version
     8727 MiB available memory on the printing compute node when the environment starts

     Waiting for input...
     Reading input from standard input

     Current dimensions of program PWSCF are:
     Max number of different atomic species (ntypx) = 10
     Max number of k-points (npk) =  40000
     Max angular momentum in pseudopotentials (lmaxx) =  4
     file Ga.pbe-dn-rrkjus_psl.0.2.UPF: wavefunction(s)  4S 3D renormalized


     G-vector sticks info
     --------------------
     sticks:   dense  smooth     PW     G-vecs:    dense   smooth      PW
     Sum        1735     685    211                47591    12039    2085

     Using Slab Decomposition



     bravais-lattice index     =            2
     lattice parameter (alat)  =      11.2170  a.u.
     unit-cell volume          =     352.8385 (a.u.)^3
     number of atoms/cell      =            2
     number of atomic types    =            2
     number of electrons       =        18.00
     number of Kohn-Sham states=            9
     kinetic-energy cutoff     =      40.0000  Ry
     charge density cutoff     =     400.0000  Ry
     scf convergence threshold =      1.0E-08
     mixing beta               =       0.7000
     number of iterations used =            8  plain     mixing
     energy convergence thresh.=      1.0E-05
     force convergence thresh. =      1.0E-04
     press convergence thresh. =      5.0E-01
     Exchange-correlation= PBE
                           (   1   4   3   4   0   0   0)
     nstep                     =           50


     celldm(1)=  11.217050  celldm(2)=   0.000000  celldm(3)=   0.000000
     celldm(4)=   0.000000  celldm(5)=   0.000000  celldm(6)=   0.000000

     crystal axes: (cart. coord. in units of alat)
               a(1) = (  -0.500000   0.000000   0.500000 )  
               a(2) = (   0.000000   0.500000   0.500000 )  
               a(3) = (  -0.500000   0.500000   0.000000 )  

     reciprocal axes: (cart. coord. in units 2 pi/alat)
               b(1) = ( -1.000000 -1.000000  1.000000 )  
               b(2) = (  1.000000  1.000000  1.000000 )  
               b(3) = ( -1.000000  1.000000 -1.000000 )  


     PseudoPot. # 1 for Ga read from file:
     /home/paolo/project_labqsm/pseudopotentials/Ga.pbe-dn-rrkjus_psl.0.2.UPF
     MD5 check sum: ffdfce4fe0c152725d7fa40f12f9e9e5
     Pseudo is Ultrasoft + core correction, Zval = 13.0
     Generated using "atomic" code by A. Dal Corso  v.5.0.2 svn rev. 9415
     Using radial grid of 1205 points,  6 beta functions with: 
                l(1) =   0
                l(2) =   0
                l(3) =   1
                l(4) =   1
                l(5) =   2
                l(6) =   2
     Q(r) pseudized with 0 coefficients 


     PseudoPot. # 2 for As read from file:
     /home/paolo/project_labqsm/pseudopotentials/As.pbe-n-rrkjus_psl.0.2.UPF
     MD5 check sum: f98050c7212d27f7cb33035312670de9
     Pseudo is Ultrasoft + core correction, Zval =  5.0
     Generated using "atomic" code by A. Dal Corso  v.5.0.2 svn rev. 9415
     Using radial grid of 1209 points,  4 beta functions with: 
                l(1) =   0
                l(2) =   0
                l(3) =   1
                l(4) =   1
     Q(r) pseudized with 0 coefficients 


     atomic species   valence    mass     pseudopotential
        Ga            13.00    69.72300     Ga( 1.00)
        As             5.00    74.92160     As( 1.00)

     24 Sym. Ops. (no inversion) found



   Cartesian axes

     site n.     atom                  positions (alat units)
         1           Ga  tau(   1) = (   0.0000000   0.0000000   0.0000000  )
         2           As  tau(   2) = (   0.2500000   0.2500000   0.2500000  )

     number of k points=    29
                       cart. coord. in units 2pi/alat
        k(    1) = (   0.0000000   0.0000000   0.0000000), wk =   0.0039062
        k(    2) = (  -0.1250000   0.1250000  -0.1250000), wk =   0.0312500
        k(    3) = (  -0.2500000   0.2500000  -0.2500000), wk =   0.0312500
        k(    4) = (  -0.3750000   0.3750000  -0.3750000), wk =   0.0312500
        k(    5) = (   0.5000000  -0.5000000   0.5000000), wk =   0.0156250
        k(    6) = (   0.0000000   0.2500000   0.0000000), wk =   0.0234375
        k(    7) = (  -0.1250000   0.3750000  -0.1250000), wk =   0.0937500
        k(    8) = (  -0.2500000   0.5000000  -0.2500000), wk =   0.0937500
        k(    9) = (   0.6250000  -0.3750000   0.6250000), wk =   0.0937500
        k(   10) = (   0.5000000  -0.2500000   0.5000000), wk =   0.0937500
        k(   11) = (   0.3750000  -0.1250000   0.3750000), wk =   0.0937500
        k(   12) = (   0.2500000   0.0000000   0.2500000), wk =   0.0468750
        k(   13) = (   0.0000000   0.5000000   0.0000000), wk =   0.0234375
        k(   14) = (  -0.1250000   0.6250000  -0.1250000), wk =   0.0937500
        k(   15) = (   0.7500000  -0.2500000   0.7500000), wk =   0.0937500
        k(   16) = (   0.6250000  -0.1250000   0.6250000), wk =   0.0937500
        k(   17) = (   0.5000000   0.0000000   0.5000000), wk =   0.0468750
        k(   18) = (   0.0000000   0.7500000   0.0000000), wk =   0.0234375
        k(   19) = (   0.8750000  -0.1250000   0.8750000), wk =   0.0937500
        k(   20) = (   0.7500000   0.0000000   0.7500000), wk =   0.0468750
        k(   21) = (   0.0000000  -1.0000000   0.0000000), wk =   0.0117188
        k(   22) = (  -0.2500000   0.5000000   0.0000000), wk =   0.0937500
        k(   23) = (   0.6250000  -0.3750000   0.8750000), wk =   0.1875000
        k(   24) = (   0.5000000  -0.2500000   0.7500000), wk =   0.0937500
        k(   25) = (   0.7500000  -0.2500000   1.0000000), wk =   0.0937500
        k(   26) = (   0.6250000  -0.1250000   0.8750000), wk =   0.1875000
        k(   27) = (   0.5000000   0.0000000   0.7500000), wk =   0.0937500
        k(   28) = (  -0.2500000  -1.0000000   0.0000000), wk =   0.0468750
        k(   29) = (  -0.5000000  -1.0000000   0.0000000), wk =   0.0234375

     Dense  grid:    47591 G-vectors     FFT dimensions: (  54,  54,  54)

     Smooth grid:    12039 G-vectors     FFT dimensions: (  32,  32,  32)

     Estimated max dynamical RAM per process >     190.97 MB

     Initial potential from superposition of free atoms

     starting charge      17.9968, renormalised to      18.0000
     Starting wfcs are   13 randomized atomic wfcs

     total cpu time spent up to now is        3.6 secs

     Self-consistent Calculation

     iteration #  1     ecut=    40.00 Ry     beta= 0.70
     Davidson diagonalization with overlap
     ethr =  1.00E-02,  avg # of iterations =  1.2

     Threshold (ethr) on eigenvalues was too large:
     Diagonalizing with lowered threshold

     Davidson diagonalization with overlap
     ethr =  2.61E-04,  avg # of iterations =  2.0

     total cpu time spent up to now is        5.3 secs

     total energy              =    -191.00556707 Ry
     estimated scf accuracy    <       0.04635125 Ry

     iteration #  2     ecut=    40.00 Ry     beta= 0.70
     Davidson diagonalization with overlap
     ethr =  2.58E-04,  avg # of iterations =  2.6

     total cpu time spent up to now is        6.4 secs

     total energy              =    -191.01573887 Ry
     estimated scf accuracy    <       0.01216079 Ry

     iteration #  3     ecut=    40.00 Ry     beta= 0.70
     Davidson diagonalization with overlap
     ethr =  6.76E-05,  avg # of iterations =  2.0

     total cpu time spent up to now is        7.5 secs

     total energy              =    -191.01787920 Ry
     estimated scf accuracy    <       0.00044541 Ry

     iteration #  4     ecut=    40.00 Ry     beta= 0.70
     Davidson diagonalization with overlap
     ethr =  2.47E-06,  avg # of iterations =  3.4

     total cpu time spent up to now is        8.6 secs

     total energy              =    -191.01801430 Ry
     estimated scf accuracy    <       0.00015385 Ry

     iteration #  5     ecut=    40.00 Ry     beta= 0.70
     Davidson diagonalization with overlap
     ethr =  8.55E-07,  avg # of iterations =  1.7

     total cpu time spent up to now is        9.6 secs

     total energy              =    -191.01799727 Ry
     estimated scf accuracy    <       0.00003499 Ry

     iteration #  6     ecut=    40.00 Ry     beta= 0.70
     Davidson diagonalization with overlap
     ethr =  1.94E-07,  avg # of iterations =  3.6

     total cpu time spent up to now is       10.7 secs

     total energy              =    -191.01801400 Ry
     estimated scf accuracy    <       0.00005526 Ry

     iteration #  7     ecut=    40.00 Ry     beta= 0.70
     Davidson diagonalization with overlap
     ethr =  1.94E-07,  avg # of iterations =  2.0

     total cpu time spent up to now is       11.8 secs

     total energy              =    -191.01801456 Ry
     estimated scf accuracy    <       0.00000686 Ry

     iteration #  8     ecut=    40.00 Ry     beta= 0.70
     Davidson diagonalization with overlap
     ethr =  3.81E-08,  avg # of iterations =  2.9

     total cpu time spent up to now is       12.8 secs

     total energy              =    -191.01801701 Ry
     estimated scf accuracy    <       0.00000015 Ry

     iteration #  9     ecut=    40.00 Ry     beta= 0.70
     Davidson diagonalization with overlap
     ethr =  8.18E-10,  avg # of iterations =  4.4

     total cpu time spent up to now is       14.0 secs

     total energy              =    -191.01801718 Ry
     estimated scf accuracy    <       0.00000033 Ry

     iteration # 10     ecut=    40.00 Ry     beta= 0.70
     Davidson diagonalization with overlap
     ethr =  8.18E-10,  avg # of iterations =  2.0

     total cpu time spent up to now is       15.0 secs

     total energy              =    -191.01801679 Ry
     estimated scf accuracy    <       0.00000063 Ry

     iteration # 11     ecut=    40.00 Ry     beta= 0.70
     Davidson diagonalization with overlap
     ethr =  8.18E-10,  avg # of iterations =  3.3

     total cpu time spent up to now is       16.2 secs

     total energy              =    -191.01801696 Ry
     estimated scf accuracy    <       0.00000004 Ry

     iteration # 12     ecut=    40.00 Ry     beta= 0.70
     Davidson diagonalization with overlap
     ethr =  2.12E-10,  avg # of iterations =  2.0

     total cpu time spent up to now is       17.2 secs

     End of self-consistent calculation

          k = 0.0000 0.0000 0.0000 (  1459 PWs)   bands (ev):

    -9.4708  -9.4708  -9.4708  -9.4217  -9.4217  -6.6556   4.6114   5.1250
     5.1250

          k =-0.1250 0.1250-0.1250 (  1480 PWs)   bands (ev):

    -9.4775  -9.4688  -9.4688  -9.4219  -9.4219  -6.5098   3.0165   4.9372
     4.9372

          k =-0.2500 0.2500-0.2500 (  1495 PWs)   bands (ev):

    -9.4929  -9.4644  -9.4644  -9.4215  -9.4215  -6.1062   1.2093   4.5743
     4.5743

          k =-0.3750 0.3750-0.3750 (  1504 PWs)   bands (ev):

    -9.5074  -9.4607  -9.4607  -9.4203  -9.4203  -5.5850  -0.2193   4.2878
     4.2878

          k = 0.5000-0.5000 0.5000 (  1502 PWs)   bands (ev):

    -9.5133  -9.4594  -9.4594  -9.4195  -9.4195  -5.3062  -0.8096   4.1839
     4.1839

          k = 0.0000 0.2500 0.0000 (  1483 PWs)   bands (ev):

    -9.4817  -9.4670  -9.4670  -9.4235  -9.4205  -6.4609   2.8991   4.6046
     4.6046

          k =-0.1250 0.3750-0.1250 (  1499 PWs)   bands (ev):

    -9.4944  -9.4631  -9.4622  -9.4247  -9.4197  -6.1408   1.5611   4.1477
     4.1999

          k =-0.2500 0.5000-0.2500 (  1497 PWs)   bands (ev):

    -9.5077  -9.4599  -9.4581  -9.4240  -9.4186  -5.6442   0.1444   3.6157
     3.9508

          k = 0.6250-0.3750 0.6250 (  1507 PWs)   bands (ev):

    -9.5151  -9.4582  -9.4567  -9.4219  -9.4189  -5.2444  -0.7129   3.2438
     3.9364

          k = 0.5000-0.2500 0.5000 (  1500 PWs)   bands (ev):

    -9.5129  -9.4583  -9.4580  -9.4209  -9.4202  -5.3423  -0.5175   3.1431
     4.1539

          k = 0.3750-0.1250 0.3750 (  1509 PWs)   bands (ev):

    -9.5021  -9.4619  -9.4604  -9.4230  -9.4202  -5.8217   0.5846   3.3761
     4.5322

          k = 0.2500 0.0000 0.2500 (  1498 PWs)   bands (ev):

    -9.4877  -9.4666  -9.4645  -9.4232  -9.4208  -6.2767   1.9850   4.0318
     4.8928

          k = 0.0000 0.5000 0.0000 (  1491 PWs)   bands (ev):

    -9.5056  -9.4570  -9.4570  -9.4279  -9.4177  -5.9154   1.1004   3.7492
     3.7492

          k =-0.1250 0.6250-0.1250 (  1511 PWs)   bands (ev):

    -9.5168  -9.4532  -9.4523  -9.4293  -9.4167  -5.4932   0.1440   3.1352
     3.4689

          k = 0.7500-0.2500 0.7500 (  1504 PWs)   bands (ev):

    -9.5221  -9.4530  -9.4502  -9.4275  -9.4172  -5.0725  -0.6295   2.4345
     3.4497

          k = 0.6250-0.1250 0.6250 (  1509 PWs)   bands (ev):

    -9.5202  -9.4548  -9.4518  -9.4242  -9.4198  -5.0121  -0.7189   2.0923
     3.6941

          k = 0.5000 0.0000 0.5000 (  1506 PWs)   bands (ev):

    -9.5126  -9.4571  -9.4564  -9.4225  -9.4212  -5.3769  -0.1318   2.3507
     4.1248

          k = 0.0000 0.7500 0.0000 (  1512 PWs)   bands (ev):

    -9.5271  -9.4467  -9.4467  -9.4330  -9.4150  -5.1780  -0.3928   3.1322
     3.1322

          k = 0.8750-0.1250 0.8750 (  1514 PWs)   bands (ev):

    -9.5313  -9.4459  -9.4446  -9.4330  -9.4148  -4.8562  -0.8790   2.5670
     3.0581

          k = 0.7500 0.0000 0.7500 (  1514 PWs)   bands (ev):

    -9.5278  -9.4499  -9.4464  -9.4293  -9.4172  -4.7811  -0.9343   1.9571
     3.2657

          k = 0.0000-1.0000 0.0000 (  1524 PWs)   bands (ev):

    -9.5354  -9.4425  -9.4425  -9.4354  -9.4138  -4.7475  -1.0772   2.9144
     2.9144

          k =-0.2500 0.5000 0.0000 (  1510 PWs)   bands (ev):

    -9.5065  -9.4590  -9.4574  -9.4261  -9.4185  -5.7670   0.6491   3.1634
     4.0564

          k = 0.6250-0.3750 0.8750 (  1507 PWs)   bands (ev):

    -9.5159  -9.4568  -9.4533  -9.4252  -9.4186  -5.2920  -0.3158   2.5820
     3.7060

          k = 0.5000-0.2500 0.7500 (  1514 PWs)   bands (ev):

    -9.5196  -9.4564  -9.4518  -9.4240  -9.4193  -5.0436  -0.7620   2.4117
     3.5443

          k = 0.7500-0.2500 1.0000 (  1502 PWs)   bands (ev):

    -9.5243  -9.4511  -9.4475  -9.4301  -9.4162  -5.1005  -0.4931   2.6203
     3.1008

          k = 0.6250-0.1250 0.8750 (  1514 PWs)   bands (ev):

    -9.5259  -9.4526  -9.4460  -9.4283  -9.4179  -4.8272  -0.8593   2.1094
     2.9558

          k = 0.5000 0.0000 0.7500 (  1511 PWs)   bands (ev):

    -9.5224  -9.4548  -9.4481  -9.4260  -9.4194  -4.9268  -0.7264   1.9915
     3.2365

          k =-0.2500-1.0000 0.0000 (  1514 PWs)   bands (ev):

    -9.5314  -9.4475  -9.4435  -9.4320  -9.4156  -4.7318  -1.0144   2.5377
     2.6320

          k =-0.5000-1.0000 0.0000 (  1540 PWs)   bands (ev):

    -9.5270  -9.4534  -9.4443  -9.4283  -9.4189  -4.7159  -0.9455   2.2205
     2.4002

     highest occupied level (ev):     5.1250

!    total energy              =    -191.01801696 Ry
     estimated scf accuracy    <          6.3E-09 Ry

     The total energy is the sum of the following terms:
     one-electron contribution =    -118.93962225 Ry
     hartree contribution      =      74.28838155 Ry
     xc contribution           =     -57.77708954 Ry
     ewald contribution        =     -88.58968672 Ry

     convergence has been achieved in  12 iterations

     Forces acting on atoms (cartesian axes, Ry/au):

     atom    1 type  1   force =     0.00000000    0.00000000    0.00000000
     atom    2 type  2   force =    -0.00000000   -0.00000000    0.00000000
     The non-local contrib.  to forces
     atom    1 type  1   force =    -0.00000000    0.00000000   -0.00000000
     atom    2 type  2   force =    -0.00000000   -0.00000000   -0.00000000
     The ionic contribution  to forces
     atom    1 type  1   force =    -0.00000000   -0.00000000   -0.00000000
     atom    2 type  2   force =     0.00000000    0.00000000    0.00000000
     The local contribution  to forces
     atom    1 type  1   force =    -0.00000000    0.00000000    0.00000000
     atom    2 type  2   force =    -0.00000000    0.00000000    0.00000000
     The core correction contribution to forces
     atom    1 type  1   force =    -0.00000000    0.00000000    0.00000000
     atom    2 type  2   force =    -0.00000000    0.00000000   -0.00000000
     The Hubbard contrib.    to forces
     atom    1 type  1   force =     0.00000000    0.00000000    0.00000000
     atom    2 type  2   force =     0.00000000    0.00000000    0.00000000
     The SCF correction term to forces
     atom    1 type  1   force =     0.00000000    0.00000000   -0.00000000
     atom    2 type  2   force =    -0.00000000   -0.00000000    0.00000000

     Total force =     0.000000     Total SCF correction =     0.000000


     Computing stress (Cartesian axis) and pressure

          total   stress  (Ry/bohr**3)                   (kbar)     P=      -48.78
  -0.00033161   0.00000000  -0.00000000          -48.78        0.00       -0.00
   0.00000000  -0.00033161  -0.00000000            0.00      -48.78       -0.00
   0.00000000   0.00000000  -0.00033161            0.00        0.00      -48.78


     BFGS Geometry Optimization
     Energy error            =      0.0E+00 Ry
     Gradient error          =      2.5E-32 Ry/Bohr
     Cell gradient error     =      4.9E+01 kbar

     number of scf cycles    =   1
     number of bfgs steps    =   0

     enthalpy           new  =    -191.0180169623 Ry

     new trust radius        =       0.0311449304 bohr
     new conv_thr            =       0.0000000100 Ry

     new unit-cell volume =    344.13563 a.u.^3 (    50.99564 Ang^3 )
     density =      4.70997 g/cm^3

CELL_PARAMETERS (alat= 11.21704970)
  -0.495854858  -0.000000000   0.495854858
   0.000000000   0.495854858   0.495854858
  -0.495854858   0.495854858  -0.000000000

ATOMIC_POSITIONS (alat)
Ga            0.0000000000        0.0000000000        0.0000000000
As            0.2479274290        0.2479274290        0.2479274290



     Writing config-only to output data dir /home/paolo/project_labqsm/GaAs/SCRATCH/gallium_arsenide.save/
     NEW-OLD atomic charge density approx. for the potential
     extrapolated charge   17.54488, renormalised to   18.00000

     total cpu time spent up to now is       27.9 secs

     Self-consistent Calculation

     iteration #  1     ecut=    40.00 Ry     beta= 0.70
     Davidson diagonalization with overlap
     ethr =  1.00E-06,  avg # of iterations =  9.5

     total cpu time spent up to now is       29.9 secs

     total energy              =    -190.90420478 Ry
     estimated scf accuracy    <       0.07452002 Ry

     iteration #  2     ecut=    40.00 Ry     beta= 0.70
     Davidson diagonalization with overlap
     ethr =  4.14E-04,  avg # of iterations =  4.2

     total cpu time spent up to now is       31.2 secs

     total energy              =    -191.01188049 Ry
     estimated scf accuracy    <       0.21146975 Ry

     iteration #  3     ecut=    40.00 Ry     beta= 0.70
     Davidson diagonalization with overlap
     ethr =  4.14E-04,  avg # of iterations =  2.0

     total cpu time spent up to now is       32.4 secs

     total energy              =    -191.02156887 Ry
     estimated scf accuracy    <       0.03371736 Ry

     iteration #  4     ecut=    40.00 Ry     beta= 0.70
     Davidson diagonalization with overlap
     ethr =  1.87E-04,  avg # of iterations =  1.5

     total cpu time spent up to now is       33.3 secs

     total energy              =    -191.02193333 Ry
     estimated scf accuracy    <       0.01016262 Ry

     iteration #  5     ecut=    40.00 Ry     beta= 0.70
     Davidson diagonalization with overlap
     ethr =  5.65E-05,  avg # of iterations =  1.1

     total cpu time spent up to now is       34.2 secs

     total energy              =    -191.02162403 Ry
     estimated scf accuracy    <       0.00520805 Ry

     iteration #  6     ecut=    40.00 Ry     beta= 0.70
     Davidson diagonalization with overlap
     ethr =  2.89E-05,  avg # of iterations =  1.0

     total cpu time spent up to now is       35.1 secs

     total energy              =    -191.02155413 Ry
     estimated scf accuracy    <       0.00326850 Ry

     iteration #  7     ecut=    40.00 Ry     beta= 0.70
     Davidson diagonalization with overlap
     ethr =  1.82E-05,  avg # of iterations =  1.1

     total cpu time spent up to now is       36.1 secs

     total energy              =    -191.02112728 Ry
     estimated scf accuracy    <       0.00267803 Ry

     iteration #  8     ecut=    40.00 Ry     beta= 0.70
     Davidson diagonalization with overlap
     ethr =  1.49E-05,  avg # of iterations =  1.2

     total cpu time spent up to now is       37.0 secs

     total energy              =    -191.02076371 Ry
     estimated scf accuracy    <       0.00150863 Ry

     iteration #  9     ecut=    40.00 Ry     beta= 0.70
     Davidson diagonalization with overlap
     ethr =  8.38E-06,  avg # of iterations =  1.0

     total cpu time spent up to now is       37.9 secs

     total energy              =    -191.02047377 Ry
     estimated scf accuracy    <       0.00057928 Ry

     iteration # 10     ecut=    40.00 Ry     beta= 0.70
     Davidson diagonalization with overlap
     ethr =  3.22E-06,  avg # of iterations =  2.0

     total cpu time spent up to now is       39.0 secs

     total energy              =    -191.02064598 Ry
     estimated scf accuracy    <       0.00004193 Ry

     iteration # 11     ecut=    40.00 Ry     beta= 0.70
     Davidson diagonalization with overlap
     ethr =  2.33E-07,  avg # of iterations =  2.9

     total cpu time spent up to now is       40.0 secs

     total energy              =    -191.02064662 Ry
     estimated scf accuracy    <       0.00000908 Ry

     iteration # 12     ecut=    40.00 Ry     beta= 0.70
     Davidson diagonalization with overlap
     ethr =  5.04E-08,  avg # of iterations =  3.2

     total cpu time spent up to now is       41.2 secs

     total energy              =    -191.02064909 Ry
     estimated scf accuracy    <       0.00002088 Ry

     iteration # 13     ecut=    40.00 Ry     beta= 0.70
     Davidson diagonalization with overlap
     ethr =  5.04E-08,  avg # of iterations =  2.0

     total cpu time spent up to now is       42.3 secs

     total energy              =    -191.02064933 Ry
     estimated scf accuracy    <       0.00000333 Ry

     iteration # 14     ecut=    40.00 Ry     beta= 0.70
     Davidson diagonalization with overlap
     ethr =  1.85E-08,  avg # of iterations =  2.0

     total cpu time spent up to now is       43.3 secs

     total energy              =    -191.02064915 Ry
     estimated scf accuracy    <       0.00000087 Ry

     iteration # 15     ecut=    40.00 Ry     beta= 0.70
     Davidson diagonalization with overlap
     ethr =  4.84E-09,  avg # of iterations =  2.3

     total cpu time spent up to now is       44.5 secs

     total energy              =    -191.02064928 Ry
     estimated scf accuracy    <       0.00000015 Ry

     iteration # 16     ecut=    40.00 Ry     beta= 0.70
     Davidson diagonalization with overlap
     ethr =  8.29E-10,  avg # of iterations =  2.0

     total cpu time spent up to now is       45.5 secs

     total energy              =    -191.02064930 Ry
     estimated scf accuracy    <       0.00000001 Ry

     iteration # 17     ecut=    40.00 Ry     beta= 0.70
     Davidson diagonalization with overlap
     ethr =  5.72E-11,  avg # of iterations =  3.0

     total cpu time spent up to now is       46.6 secs

     End of self-consistent calculation

          k = 0.0000 0.0000 0.0000 (  1459 PWs)   bands (ev):

    -9.2328  -9.2328  -9.2328  -9.1795  -9.1795  -6.5409   5.0435   5.3887
     5.3887

          k =-0.1260 0.1260-0.1260 (  1480 PWs)   bands (ev):

    -9.2404  -9.2307  -9.2307  -9.1797  -9.1797  -6.3893   3.3153   5.1932
     5.1932

          k =-0.2521 0.2521-0.2521 (  1495 PWs)   bands (ev):

    -9.2576  -9.2258  -9.2258  -9.1792  -9.1792  -5.9688   1.4427   4.8175
     4.8175

          k =-0.3781 0.3781-0.3781 (  1504 PWs)   bands (ev):

    -9.2736  -9.2217  -9.2217  -9.1779  -9.1779  -5.4221  -0.0393   4.5223
     4.5223

          k = 0.5042-0.5042 0.5042 (  1502 PWs)   bands (ev):

    -9.2801  -9.2203  -9.2203  -9.1770  -9.1770  -5.1266  -0.6555   4.4154
     4.4154

          k = 0.0000 0.2521 0.0000 (  1483 PWs)   bands (ev):

    -9.2450  -9.2286  -9.2286  -9.1815  -9.1782  -6.3384   3.2087   4.8465
     4.8465

          k =-0.1260 0.3781-0.1260 (  1499 PWs)   bands (ev):

    -9.2591  -9.2244  -9.2234  -9.1828  -9.1772  -6.0052   1.8192   4.3797
     4.4282

          k =-0.2521 0.5042-0.2521 (  1497 PWs)   bands (ev):

    -9.2738  -9.2208  -9.2188  -9.1821  -9.1760  -5.4854   0.3463   3.8365
     4.1721

          k = 0.6302-0.3781 0.6302 (  1507 PWs)   bands (ev):

    -9.2821  -9.2190  -9.2174  -9.1797  -9.1764  -5.0626  -0.5495   3.4552
     4.1585

          k = 0.5042-0.2521 0.5042 (  1500 PWs)   bands (ev):

    -9.2796  -9.2191  -9.2187  -9.1786  -9.1778  -5.1665  -0.3449   3.3487
     4.3838

          k = 0.3781-0.1260 0.3781 (  1509 PWs)   bands (ev):

    -9.2677  -9.2230  -9.2215  -9.1809  -9.1779  -5.6716   0.8041   3.5817
     4.7752

          k = 0.2521 0.0000 0.2521 (  1498 PWs)   bands (ev):

    -9.2517  -9.2282  -9.2259  -9.1811  -9.1785  -6.1467   2.2552   4.2524
     5.1487

          k = 0.0000 0.5042 0.0000 (  1491 PWs)   bands (ev):

    -9.2714  -9.2176  -9.2176  -9.1864  -9.1751  -5.7706   1.3556   3.9625
     3.9625

          k =-0.1260 0.6302-0.1260 (  1511 PWs)   bands (ev):

    -9.2837  -9.2135  -9.2125  -9.1879  -9.1739  -5.3285   0.3628   3.3301
     3.6740

          k = 0.7563-0.2521 0.7563 (  1504 PWs)   bands (ev):

    -9.2895  -9.2134  -9.2102  -9.1859  -9.1745  -4.8832  -0.4474   2.6095
     3.6550

          k = 0.6302-0.1260 0.6302 (  1509 PWs)   bands (ev):

    -9.2876  -9.2153  -9.2120  -9.1823  -9.1774  -4.8181  -0.5425   2.2557
     3.9077

          k = 0.5042 0.0000 0.5042 (  1506 PWs)   bands (ev):

    -9.2792  -9.2178  -9.2170  -9.1804  -9.1789  -5.2047   0.0710   2.5191
     4.3531

          k = 0.0000 0.7563 0.0000 (  1512 PWs)   bands (ev):

    -9.2949  -9.2064  -9.2064  -9.1921  -9.1721  -4.9973  -0.1924   3.3271
     3.3271

          k = 0.8823-0.1260 0.8823 (  1514 PWs)   bands (ev):

    -9.2994  -9.2055  -9.2040  -9.1920  -9.1719  -4.6549  -0.7022   2.7415
     3.2512

          k = 0.7563 0.0000 0.7563 (  1514 PWs)   bands (ev):

    -9.2957  -9.2099  -9.2060  -9.1879  -9.1746  -4.5733  -0.7616   2.1097
     3.4654

          k = 0.0000-1.0084 0.0000 (  1524 PWs)   bands (ev):

    -9.3039  -9.2017  -9.2017  -9.1948  -9.1707  -4.5389  -0.9113   3.1032
     3.1032

          k =-0.2521 0.5042 0.0000 (  1510 PWs)   bands (ev):

    -9.2725  -9.2199  -9.2181  -9.1843  -9.1759  -5.6149   0.8820   3.3570
     4.2827

          k = 0.6302-0.3781 0.8823 (  1507 PWs)   bands (ev):

    -9.2829  -9.2175  -9.2136  -9.1834  -9.1761  -5.1152  -0.1226   2.7626
     3.9189

          k = 0.5042-0.2521 0.7563 (  1514 PWs)   bands (ev):

    -9.2869  -9.2170  -9.2120  -9.1820  -9.1768  -4.8511  -0.5918   2.5911
     3.7509

          k = 0.7563-0.2521 1.0084 (  1502 PWs)   bands (ev):

    -9.2919  -9.2112  -9.2073  -9.1888  -9.1734  -4.9143  -0.2983   2.7974
     3.2920

          k = 0.6302-0.1260 0.8823 (  1514 PWs)   bands (ev):

    -9.2937  -9.2129  -9.2056  -9.1868  -9.1753  -4.6225  -0.6829   2.2689
     3.1418

          k = 0.5042 0.0000 0.7563 (  1511 PWs)   bands (ev):

    -9.2899  -9.2153  -9.2080  -9.1842  -9.1770  -4.7284  -0.5444   2.1470
     3.4322

          k =-0.2521-1.0084 0.0000 (  1514 PWs)   bands (ev):

    -9.2996  -9.2072  -9.2029  -9.1909  -9.1728  -4.5214  -0.8448   2.7124
     2.8067

          k =-0.5042-1.0084 0.0000 (  1540 PWs)   bands (ev):

    -9.2948  -9.2137  -9.2038  -9.1867  -9.1764  -4.5037  -0.7715   2.3833
     2.5644

     highest occupied level (ev):     5.3887

!    total energy              =    -191.02064930 Ry
     estimated scf accuracy    <          1.6E-09 Ry

     The total energy is the sum of the following terms:
     one-electron contribution =    -117.73775533 Ry
     hartree contribution      =      73.84704333 Ry
     xc contribution           =     -57.79967736 Ry
     ewald contribution        =     -89.33025993 Ry

     convergence has been achieved in  17 iterations

     Forces acting on atoms (cartesian axes, Ry/au):

     atom    1 type  1   force =     0.00000000   -0.00000000   -0.00000000
     atom    2 type  2   force =    -0.00000000    0.00000000    0.00000000
     The non-local contrib.  to forces
     atom    1 type  1   force =    -0.00000000    0.00000000   -0.00000000
     atom    2 type  2   force =     0.00000000   -0.00000000    0.00000000
     The ionic contribution  to forces
     atom    1 type  1   force =     0.00000000    0.00000000   -0.00000000
     atom    2 type  2   force =    -0.00000000    0.00000000    0.00000000
     The local contribution  to forces
     atom    1 type  1   force =    -0.00000000    0.00000000    0.00000000
     atom    2 type  2   force =     0.00000000    0.00000000    0.00000000
     The core correction contribution to forces
     atom    1 type  1   force =    -0.00000000    0.00000000    0.00000000
     atom    2 type  2   force =     0.00000000   -0.00000000   -0.00000000
     The Hubbard contrib.    to forces
     atom    1 type  1   force =     0.00000000    0.00000000    0.00000000
     atom    2 type  2   force =     0.00000000    0.00000000    0.00000000
     The SCF correction term to forces
     atom    1 type  1   force =     0.00000000   -0.00000000   -0.00000000
     atom    2 type  2   force =    -0.00000000   -0.00000000    0.00000000

     Total force =     0.000000     Total SCF correction =     0.000000


     Computing stress (Cartesian axis) and pressure

          total   stress  (Ry/bohr**3)                   (kbar)     P=      -39.85
  -0.00027089  -0.00000000   0.00000000          -39.85       -0.00        0.00
  -0.00000000  -0.00027089  -0.00000000           -0.00      -39.85       -0.00
   0.00000000  -0.00000000  -0.00027089            0.00       -0.00      -39.85

     Energy error            =      2.6E-03 Ry
     Gradient error          =      9.1E-32 Ry/Bohr
     Cell gradient error     =      4.0E+01 kbar

     number of scf cycles    =   2
     number of bfgs steps    =   1

     enthalpy           old  =    -191.0180169623 Ry
     enthalpy           new  =    -191.0206493003 Ry

     CASE: enthalpy          _new < enthalpy          _old


     WARNING: bfgs curvature condition failed, Theta= 0.996
     new trust radius        =       0.0465233424 bohr
     new conv_thr            =            1.0E-10 Ry

     new unit-cell volume =    331.35154 a.u.^3 (    49.10123 Ang^3 )
     density =      4.89169 g/cm^3

CELL_PARAMETERS (alat= 11.21704970)
  -0.489637145  -0.000000000   0.489637145
   0.000000000   0.489637145   0.489637145
  -0.489637145   0.489637145  -0.000000000

ATOMIC_POSITIONS (alat)
Ga            0.0000000000       -0.0000000000       -0.0000000000
As            0.2448185726        0.2448185726        0.2448185726



     Writing config-only to output data dir /home/paolo/project_labqsm/GaAs/SCRATCH/gallium_arsenide.save/
     NEW-OLD atomic charge density approx. for the potential
     extrapolated charge   17.30565, renormalised to   18.00000

     total cpu time spent up to now is       57.3 secs

     Self-consistent Calculation

     iteration #  1     ecut=    40.00 Ry     beta= 0.70
     Davidson diagonalization with overlap
     ethr =  1.00E-06,  avg # of iterations = 10.0

     total cpu time spent up to now is       59.5 secs

     total energy              =    -190.76662271 Ry
     estimated scf accuracy    <       0.16417482 Ry

     iteration #  2     ecut=    40.00 Ry     beta= 0.70
     Davidson diagonalization with overlap
     ethr =  9.12E-04,  avg # of iterations =  4.2

     total cpu time spent up to now is       60.8 secs

     total energy              =    -190.99786108 Ry
     estimated scf accuracy    <       0.48640712 Ry

     iteration #  3     ecut=    40.00 Ry     beta= 0.70
     Davidson diagonalization with overlap
     ethr =  9.12E-04,  avg # of iterations =  2.0

     total cpu time spent up to now is       61.9 secs

     total energy              =    -191.02627441 Ry
     estimated scf accuracy    <       0.07240814 Ry

     iteration #  4     ecut=    40.00 Ry     beta= 0.70
     Davidson diagonalization with overlap
     ethr =  4.02E-04,  avg # of iterations =  1.3

     total cpu time spent up to now is       62.9 secs

     total energy              =    -191.02608784 Ry
     estimated scf accuracy    <       0.02387994 Ry

     iteration #  5     ecut=    40.00 Ry     beta= 0.70
     Davidson diagonalization with overlap
     ethr =  1.33E-04,  avg # of iterations =  1.2

     total cpu time spent up to now is       63.8 secs

     total energy              =    -191.02478099 Ry
     estimated scf accuracy    <       0.01180964 Ry

     iteration #  6     ecut=    40.00 Ry     beta= 0.70
     Davidson diagonalization with overlap
     ethr =  6.56E-05,  avg # of iterations =  1.4

     total cpu time spent up to now is       64.7 secs

     total energy              =    -191.02485759 Ry
     estimated scf accuracy    <       0.00574488 Ry

     iteration #  7     ecut=    40.00 Ry     beta= 0.70
     Davidson diagonalization with overlap
     ethr =  3.19E-05,  avg # of iterations =  1.0

     total cpu time spent up to now is       65.6 secs

     total energy              =    -191.02423424 Ry
     estimated scf accuracy    <       0.00468199 Ry

     iteration #  8     ecut=    40.00 Ry     beta= 0.70
     Davidson diagonalization with overlap
     ethr =  2.60E-05,  avg # of iterations =  1.4

     total cpu time spent up to now is       66.6 secs

     total energy              =    -191.02377539 Ry
     estimated scf accuracy    <       0.00282912 Ry

     iteration #  9     ecut=    40.00 Ry     beta= 0.70
     Davidson diagonalization with overlap
     ethr =  1.57E-05,  avg # of iterations =  1.0

     total cpu time spent up to now is       67.5 secs

     total energy              =    -191.02282148 Ry
     estimated scf accuracy    <       0.00147129 Ry

     iteration # 10     ecut=    40.00 Ry     beta= 0.70
     Davidson diagonalization with overlap
     ethr =  8.17E-06,  avg # of iterations =  2.1

     total cpu time spent up to now is       68.6 secs

     total energy              =    -191.02332095 Ry
     estimated scf accuracy    <       0.00003373 Ry

     iteration # 11     ecut=    40.00 Ry     beta= 0.70
     Davidson diagonalization with overlap
     ethr =  1.87E-07,  avg # of iterations =  3.2

     total cpu time spent up to now is       69.7 secs

     total energy              =    -191.02332192 Ry
     estimated scf accuracy    <       0.00001207 Ry

     iteration # 12     ecut=    40.00 Ry     beta= 0.70
     Davidson diagonalization with overlap
     ethr =  6.71E-08,  avg # of iterations =  2.0

     total cpu time spent up to now is       70.7 secs

     total energy              =    -191.02332263 Ry
     estimated scf accuracy    <       0.00000222 Ry

     iteration # 13     ecut=    40.00 Ry     beta= 0.70
     Davidson diagonalization with overlap
     ethr =  1.23E-08,  avg # of iterations =  2.0

     total cpu time spent up to now is       71.8 secs

     total energy              =    -191.02332312 Ry
     estimated scf accuracy    <       0.00000068 Ry

     iteration # 14     ecut=    40.00 Ry     beta= 0.70
     Davidson diagonalization with overlap
     ethr =  3.81E-09,  avg # of iterations =  1.4

     total cpu time spent up to now is       72.7 secs

     total energy              =    -191.02332326 Ry
     estimated scf accuracy    <       0.00000071 Ry

     iteration # 15     ecut=    40.00 Ry     beta= 0.70
     Davidson diagonalization with overlap
     ethr =  3.81E-09,  avg # of iterations =  2.0

     total cpu time spent up to now is       73.7 secs

     total energy              =    -191.02332308 Ry
     estimated scf accuracy    <       0.00000113 Ry

     iteration # 16     ecut=    40.00 Ry     beta= 0.70
     Davidson diagonalization with overlap
     ethr =  3.81E-09,  avg # of iterations =  1.0

     total cpu time spent up to now is       74.7 secs

     total energy              =    -191.02332292 Ry
     estimated scf accuracy    <       0.00000059 Ry

     iteration # 17     ecut=    40.00 Ry     beta= 0.70
     Davidson diagonalization with overlap
     ethr =  3.27E-09,  avg # of iterations =  2.0

     total cpu time spent up to now is       75.7 secs

     total energy              =    -191.02332293 Ry
     estimated scf accuracy    <       0.00000017 Ry

     iteration # 18     ecut=    40.00 Ry     beta= 0.70
     Davidson diagonalization with overlap
     ethr =  9.23E-10,  avg # of iterations =  1.1

     total cpu time spent up to now is       76.6 secs

     total energy              =    -191.02332289 Ry
     estimated scf accuracy    <       0.00000009 Ry

     iteration # 19     ecut=    40.00 Ry     beta= 0.70
     Davidson diagonalization with overlap
     ethr =  4.76E-10,  avg # of iterations =  2.2

     total cpu time spent up to now is       77.6 secs

     total energy              =    -191.02332290 Ry
     estimated scf accuracy    <          5.8E-09 Ry

     iteration # 20     ecut=    40.00 Ry     beta= 0.70
     Davidson diagonalization with overlap
     ethr =  3.24E-11,  avg # of iterations =  2.5

     total cpu time spent up to now is       78.8 secs

     total energy              =    -191.02332291 Ry
     estimated scf accuracy    <          5.3E-10 Ry

     iteration # 21     ecut=    40.00 Ry     beta= 0.70
     Davidson diagonalization with overlap
     ethr =  2.92E-12,  avg # of iterations =  3.5

     total cpu time spent up to now is       80.0 secs

     End of self-consistent calculation

          k = 0.0000 0.0000 0.0000 (  1459 PWs)   bands (ev):

    -8.8651  -8.8651  -8.8651  -8.8047  -8.8047  -6.3635   5.7201   5.8023
     5.8023

          k =-0.1276 0.1276-0.1276 (  1480 PWs)   bands (ev):

    -8.8741  -8.8626  -8.8626  -8.8050  -8.8050  -6.2029   3.7740   5.5946
     5.5946

          k =-0.2553 0.2553-0.2553 (  1495 PWs)   bands (ev):

    -8.8945  -8.8570  -8.8570  -8.8044  -8.8044  -5.7560   1.8036   5.1989
     5.1989

          k =-0.3829 0.3829-0.3829 (  1504 PWs)   bands (ev):

    -8.9133  -8.8524  -8.8524  -8.8029  -8.8029  -5.1691   0.2395   4.8900
     4.8900

          k = 0.5106-0.5106 0.5106 (  1502 PWs)   bands (ev):

    -8.9208  -8.8508  -8.8508  -8.8018  -8.8018  -4.8467  -0.4174   4.7784
     4.7784

          k = 0.0000 0.2553 0.0000 (  1483 PWs)   bands (ev):

    -8.8796  -8.8602  -8.8602  -8.8070  -8.8032  -6.1491   3.6874   5.2255
     5.2255

          k =-0.1276 0.3829-0.1276 (  1499 PWs)   bands (ev):

    -8.8961  -8.8554  -8.8543  -8.8086  -8.8021  -5.7954   2.2194   4.7441
     4.7858

          k =-0.2553 0.5106-0.2553 (  1497 PWs)   bands (ev):

    -8.9133  -8.8513  -8.8491  -8.8078  -8.8007  -5.2392   0.6596   4.1836
     4.5189

          k = 0.6382-0.3829 0.6382 (  1507 PWs)   bands (ev):

    -8.9228  -8.8493  -8.8474  -8.8050  -8.8011  -4.7794  -0.2966   3.7876
     4.5064

          k = 0.5106-0.2553 0.5106 (  1500 PWs)   bands (ev):

    -8.9200  -8.8494  -8.8489  -8.8037  -8.8028  -4.8932  -0.0773   3.6719
     4.7441

          k = 0.3829-0.1276 0.3829 (  1509 PWs)   bands (ev):

    -8.9062  -8.8538  -8.8521  -8.8063  -8.8028  -5.4389   1.1449   3.9044
     5.1563

          k = 0.2553 0.0000 0.2553 (  1498 PWs)   bands (ev):

    -8.8875  -8.8598  -8.8571  -8.8066  -8.8036  -5.9455   2.6735   4.5977
     5.5502

          k = 0.0000 0.5106 0.0000 (  1491 PWs)   bands (ev):

    -8.9102  -8.8476  -8.8476  -8.8128  -8.7996  -5.5465   1.7540   4.2966
     4.2966

          k =-0.1276 0.6382-0.1276 (  1511 PWs)   bands (ev):

    -8.9242  -8.8429  -8.8417  -8.8147  -8.7983  -5.0734   0.7049   3.6355
     3.9954

          k = 0.7659-0.2553 0.7659 (  1504 PWs)   bands (ev):

    -8.9310  -8.8428  -8.8391  -8.8123  -8.7990  -4.5888  -0.1637   2.8843
     3.9767

          k = 0.6382-0.1276 0.6382 (  1509 PWs)   bands (ev):

    -8.9289  -8.8451  -8.8411  -8.8080  -8.8024  -4.5160  -0.2681   2.5122
     4.2424

          k = 0.5106 0.0000 0.5106 (  1506 PWs)   bands (ev):

    -8.9194  -8.8480  -8.8468  -8.8058  -8.8042  -4.9373   0.3875   2.7831
     4.7110

          k = 0.0000 0.7659 0.0000 (  1512 PWs)   bands (ev):

    -8.9368  -8.8346  -8.8346  -8.8196  -8.7962  -4.7170   0.1215   3.6325
     3.6325

          k = 0.8935-0.1276 0.8935 (  1514 PWs)   bands (ev):

    -8.9420  -8.8337  -8.8319  -8.8194  -8.7960  -4.3417  -0.4258   3.0146
     3.5536

          k = 0.7659 0.0000 0.7659 (  1514 PWs)   bands (ev):

    -8.9379  -8.8388  -8.8342  -8.8146  -8.7991  -4.2491  -0.4921   2.3485
     3.7782

          k = 0.0000-1.0212 0.0000 (  1524 PWs)   bands (ev):

    -8.9471  -8.8292  -8.8292  -8.8227  -8.7946  -4.2138  -0.6524   3.3988
     3.3988

          k =-0.2553 0.5106 0.0000 (  1510 PWs)   bands (ev):

    -8.9115  -8.8502  -8.8482  -8.8104  -8.8006  -5.3794   1.2450   3.6601
     4.6376

          k = 0.6382-0.3829 0.8935 (  1507 PWs)   bands (ev):

    -8.9235  -8.8475  -8.8431  -8.8093  -8.8008  -4.8407   0.1784   3.0464
     4.2523

          k = 0.5106-0.2553 0.7659 (  1514 PWs)   bands (ev):

    -8.9282  -8.8470  -8.8412  -8.8077  -8.8017  -4.5511  -0.3278   2.8734
     4.0743

          k = 0.7659-0.2553 1.0212 (  1502 PWs)   bands (ev):

    -8.9336  -8.8402  -8.8358  -8.8157  -8.7977  -4.6251   0.0066   3.0748
     3.5913

          k = 0.6382-0.1276 0.8935 (  1514 PWs)   bands (ev):

    -8.9356  -8.8421  -8.8339  -8.8132  -8.7999  -4.3035  -0.4076   2.5186
     3.4328

          k = 0.5106 0.0000 0.7659 (  1511 PWs)   bands (ev):

    -8.9314  -8.8449  -8.8366  -8.8103  -8.8019  -4.4193  -0.2601   2.3903
     3.7387

          k =-0.2553-1.0212 0.0000 (  1514 PWs)   bands (ev):

    -8.9422  -8.8356  -8.8308  -8.8180  -8.7970  -4.1932  -0.5801   2.9860
     3.0801

          k =-0.5106-1.0212 0.0000 (  1540 PWs)   bands (ev):

    -8.9369  -8.8430  -8.8319  -8.8131  -8.8012  -4.1723  -0.4998   2.6382
     2.8210

     highest occupied level (ev):     5.8023

!    total energy              =    -191.02332291 Ry
     estimated scf accuracy    <          1.3E-12 Ry

     The total energy is the sum of the following terms:
     one-electron contribution =    -115.90139251 Ry
     hartree contribution      =      73.17795474 Ry
     xc contribution           =     -57.83525476 Ry
     ewald contribution        =     -90.46463038 Ry

     convergence has been achieved in  21 iterations

     Forces acting on atoms (cartesian axes, Ry/au):

     atom    1 type  1   force =    -0.00000000    0.00000000   -0.00000000
     atom    2 type  2   force =     0.00000000   -0.00000000    0.00000000
     The non-local contrib.  to forces
     atom    1 type  1   force =    -0.00000000    0.00000000   -0.00000000
     atom    2 type  2   force =    -0.00000000    0.00000000    0.00000000
     The ionic contribution  to forces
     atom    1 type  1   force =     0.00000000    0.00000000    0.00000000
     atom    2 type  2   force =     0.00000000   -0.00000000   -0.00000000
     The local contribution  to forces
     atom    1 type  1   force =    -0.00000000    0.00000000    0.00000000
     atom    2 type  2   force =     0.00000000    0.00000000    0.00000000
     The core correction contribution to forces
     atom    1 type  1   force =    -0.00000000    0.00000000    0.00000000
     atom    2 type  2   force =    -0.00000000    0.00000000    0.00000000
     The Hubbard contrib.    to forces
     atom    1 type  1   force =     0.00000000    0.00000000    0.00000000
     atom    2 type  2   force =     0.00000000    0.00000000    0.00000000
     The SCF correction term to forces
     atom    1 type  1   force =    -0.00000000   -0.00000000    0.00000000
     atom    2 type  2   force =     0.00000000   -0.00000000   -0.00000000

     Total force =     0.000000     Total SCF correction =     0.000000


     Computing stress (Cartesian axis) and pressure

          total   stress  (Ry/bohr**3)                   (kbar)     P=      -21.42
  -0.00014558   0.00000000   0.00000000          -21.42        0.00        0.00
   0.00000000  -0.00014558   0.00000000            0.00      -21.42        0.00
   0.00000000   0.00000000  -0.00014558            0.00        0.00      -21.42

     Energy error            =      2.7E-03 Ry
     Gradient error          =      1.0E-31 Ry/Bohr
     Cell gradient error     =      2.1E+01 kbar

     number of scf cycles    =   3
     number of bfgs steps    =   2

     enthalpy           old  =    -191.0206493003 Ry
     enthalpy           new  =    -191.0233229059 Ry

     CASE: enthalpy          _new < enthalpy          _old

     new trust radius        =       0.0508954693 bohr
     new conv_thr            =            1.0E-10 Ry

     new unit-cell volume =    317.64811 a.u.^3 (    47.07059 Ang^3 )
     density =      5.10272 g/cm^3

CELL_PARAMETERS (alat= 11.21704970)
  -0.482792058  -0.000000000   0.482792058
   0.000000000   0.482792058   0.482792058
  -0.482792058   0.482792058  -0.000000000

ATOMIC_POSITIONS (alat)
Ga           -0.0000000000        0.0000000000       -0.0000000000
As            0.2413960290        0.2413960290        0.2413960290



     Writing config-only to output data dir /home/paolo/project_labqsm/GaAs/SCRATCH/gallium_arsenide.save/
     NEW-OLD atomic charge density approx. for the potential
     extrapolated charge   17.22361, renormalised to   18.00000

     total cpu time spent up to now is       90.7 secs

     Self-consistent Calculation

     iteration #  1     ecut=    40.00 Ry     beta= 0.70
     Davidson diagonalization with overlap
     ethr =  1.00E-06,  avg # of iterations = 10.1

     total cpu time spent up to now is       92.9 secs

     total energy              =    -190.71221104 Ry
     estimated scf accuracy    <       0.19902514 Ry

     iteration #  2     ecut=    40.00 Ry     beta= 0.70
     Davidson diagonalization with overlap
     ethr =  1.11E-03,  avg # of iterations =  4.2

     total cpu time spent up to now is       94.2 secs

     total energy              =    -190.99268878 Ry
     estimated scf accuracy    <       0.58958321 Ry

     iteration #  3     ecut=    40.00 Ry     beta= 0.70
     Davidson diagonalization with overlap
     ethr =  1.11E-03,  avg # of iterations =  2.0

     total cpu time spent up to now is       95.3 secs

     total energy              =    -191.02981394 Ry
     estimated scf accuracy    <       0.08688303 Ry

     iteration #  4     ecut=    40.00 Ry     beta= 0.70
     Davidson diagonalization with overlap
     ethr =  4.83E-04,  avg # of iterations =  1.0

     total cpu time spent up to now is       96.2 secs

     total energy              =    -191.02843436 Ry
     estimated scf accuracy    <       0.03209659 Ry

     iteration #  5     ecut=    40.00 Ry     beta= 0.70
     Davidson diagonalization with overlap
     ethr =  1.78E-04,  avg # of iterations =  1.1

     total cpu time spent up to now is       97.2 secs

     total energy              =    -191.02609010 Ry
     estimated scf accuracy    <       0.01630574 Ry

     iteration #  6     ecut=    40.00 Ry     beta= 0.70
     Davidson diagonalization with overlap
     ethr =  9.06E-05,  avg # of iterations =  1.5

     total cpu time spent up to now is       98.1 secs

     total energy              =    -191.02586266 Ry
     estimated scf accuracy    <       0.00738508 Ry

     iteration #  7     ecut=    40.00 Ry     beta= 0.70
     Davidson diagonalization with overlap
     ethr =  4.10E-05,  avg # of iterations =  1.0

     total cpu time spent up to now is       99.0 secs

     total energy              =    -191.02594410 Ry
     estimated scf accuracy    <       0.00505744 Ry

     iteration #  8     ecut=    40.00 Ry     beta= 0.70
     Davidson diagonalization with overlap
     ethr =  2.81E-05,  avg # of iterations =  1.0

     total cpu time spent up to now is      100.0 secs

     total energy              =    -191.02331991 Ry
     estimated scf accuracy    <       0.00475169 Ry

     iteration #  9     ecut=    40.00 Ry     beta= 0.70
     Davidson diagonalization with overlap
     ethr =  2.64E-05,  avg # of iterations =  2.0

     total cpu time spent up to now is      101.0 secs

     total energy              =    -191.02421425 Ry
     estimated scf accuracy    <       0.00010825 Ry

     iteration # 10     ecut=    40.00 Ry     beta= 0.70
     Davidson diagonalization with overlap
     ethr =  6.01E-07,  avg # of iterations =  3.9

     total cpu time spent up to now is      102.2 secs

     total energy              =    -191.02428235 Ry
     estimated scf accuracy    <       0.00001260 Ry

     iteration # 11     ecut=    40.00 Ry     beta= 0.70
     Davidson diagonalization with overlap
     ethr =  7.00E-08,  avg # of iterations =  2.3

     total cpu time spent up to now is      103.3 secs

     total energy              =    -191.02427072 Ry
     estimated scf accuracy    <       0.00002334 Ry

     iteration # 12     ecut=    40.00 Ry     beta= 0.70
     Davidson diagonalization with overlap
     ethr =  7.00E-08,  avg # of iterations =  3.0

     total cpu time spent up to now is      104.5 secs

     total energy              =    -191.02428055 Ry
     estimated scf accuracy    <       0.00000465 Ry

     iteration # 13     ecut=    40.00 Ry     beta= 0.70
     Davidson diagonalization with overlap
     ethr =  2.58E-08,  avg # of iterations =  1.1

     total cpu time spent up to now is      105.4 secs

     total energy              =    -191.02427757 Ry
     estimated scf accuracy    <       0.00000542 Ry

     iteration # 14     ecut=    40.00 Ry     beta= 0.70
     Davidson diagonalization with overlap
     ethr =  2.58E-08,  avg # of iterations =  2.0

     total cpu time spent up to now is      106.6 secs

     total energy              =    -191.02427842 Ry
     estimated scf accuracy    <       0.00000013 Ry

     iteration # 15     ecut=    40.00 Ry     beta= 0.70
     Davidson diagonalization with overlap
     ethr =  7.02E-10,  avg # of iterations =  3.2

     total cpu time spent up to now is      107.7 secs

     total energy              =    -191.02427851 Ry
     estimated scf accuracy    <       0.00000004 Ry

     iteration # 16     ecut=    40.00 Ry     beta= 0.70
     Davidson diagonalization with overlap
     ethr =  2.07E-10,  avg # of iterations =  1.1

     total cpu time spent up to now is      108.7 secs

     total energy              =    -191.02427850 Ry
     estimated scf accuracy    <       0.00000003 Ry

     iteration # 17     ecut=    40.00 Ry     beta= 0.70
     Davidson diagonalization with overlap
     ethr =  1.65E-10,  avg # of iterations =  2.0

     total cpu time spent up to now is      109.8 secs

     total energy              =    -191.02427850 Ry
     estimated scf accuracy    <          4.2E-10 Ry

     iteration # 18     ecut=    40.00 Ry     beta= 0.70
     Davidson diagonalization with overlap
     ethr =  2.33E-12,  avg # of iterations =  3.3

     total cpu time spent up to now is      111.0 secs

     total energy              =    -191.02427850 Ry
     estimated scf accuracy    <          1.6E-10 Ry

     iteration # 19     ecut=    40.00 Ry     beta= 0.70
     Davidson diagonalization with overlap
     ethr =  8.85E-13,  avg # of iterations =  2.1

     total cpu time spent up to now is      112.1 secs

     total energy              =    -191.02427850 Ry
     estimated scf accuracy    <          4.3E-10 Ry

     iteration # 20     ecut=    40.00 Ry     beta= 0.70
     Davidson diagonalization with overlap
     ethr =  8.85E-13,  avg # of iterations =  2.0

     total cpu time spent up to now is      113.1 secs

     End of self-consistent calculation

          k = 0.0000 0.0000 0.0000 (  1459 PWs)   bands (ev):

    -8.4459  -8.4459  -8.4459  -8.3768  -8.3768  -6.1598   6.2851   6.2851
     6.2851

          k =-0.1295 0.1295-0.1295 (  1480 PWs)   bands (ev):

    -8.4569  -8.4430  -8.4430  -8.3770  -8.3770  -5.9885   4.2949   6.0628
     6.0628

          k =-0.2589 0.2589-0.2589 (  1495 PWs)   bands (ev):

    -8.4814  -8.4364  -8.4364  -8.3764  -8.3764  -5.5109   2.2174   5.6436
     5.6436

          k =-0.3884 0.3884-0.3884 (  1504 PWs)   bands (ev):

    -8.5035  -8.4311  -8.4311  -8.3746  -8.3746  -4.8770   0.5600   5.3187
     5.3187

          k = 0.5178-0.5178 0.5178 (  1502 PWs)   bands (ev):

    -8.5123  -8.4293  -8.4293  -8.3732  -8.3732  -4.5223  -0.1447   5.2017
     5.2017

          k = 0.0000 0.2589 0.0000 (  1483 PWs)   bands (ev):

    -8.4633  -8.4402  -8.4402  -8.3794  -8.3750  -5.9314   4.2360   5.6671
     5.6671

          k =-0.1295 0.3884-0.1295 (  1499 PWs)   bands (ev):

    -8.4830  -8.4346  -8.4332  -8.3813  -8.3736  -5.5539   2.6795   5.1699
     5.2024

          k =-0.2589 0.5178-0.2589 (  1497 PWs)   bands (ev):

    -8.5033  -8.4299  -8.4272  -8.3804  -8.3721  -4.9555   1.0203   4.5897
     4.9229

          k = 0.6473-0.3884 0.6473 (  1507 PWs)   bands (ev):

    -8.5145  -8.4276  -8.4253  -8.3771  -8.3725  -4.4516  -0.0066   4.1764
     4.9120

          k = 0.5178-0.2589 0.5178 (  1500 PWs)   bands (ev):

    -8.5112  -8.4277  -8.4270  -8.3755  -8.3745  -4.5771   0.2302   4.0498
     5.1643

          k = 0.3884-0.1295 0.3884 (  1509 PWs)   bands (ev):

    -8.4950  -8.4326  -8.4307  -8.3786  -8.3745  -5.1709   1.5371   4.2813
     5.6008

          k = 0.2589 0.0000 0.2589 (  1498 PWs)   bands (ev):

    -8.4729  -8.4396  -8.4366  -8.3789  -8.3755  -5.7140   3.1538   4.9998
     6.0188

          k = 0.0000 0.5178 0.0000 (  1491 PWs)   bands (ev):

    -8.4993  -8.4254  -8.4254  -8.3865  -8.3708  -5.2886   2.2158   4.6857
     4.6857

          k =-0.1295 0.6473-0.1295 (  1511 PWs)   bands (ev):

    -8.5155  -8.4200  -8.4185  -8.3887  -8.3692  -4.7796   1.1019   3.9916
     4.3697

          k = 0.7767-0.2589 0.7767 (  1504 PWs)   bands (ev):

    -8.5234  -8.4200  -8.4156  -8.3858  -8.3700  -4.2484   0.1643   3.2056
     4.3514

          k = 0.6473-0.1295 0.6473 (  1509 PWs)   bands (ev):

    -8.5211  -8.4226  -8.4178  -8.3806  -8.3741  -4.1660   0.0483   2.8121
     4.6325

          k = 0.5178 0.0000 0.5178 (  1506 PWs)   bands (ev):

    -8.5102  -8.4260  -8.4245  -8.3781  -8.3761  -4.6289   0.7540   3.0909
     5.1282

          k = 0.0000 0.7767 0.0000 (  1512 PWs)   bands (ev):

    -8.5298  -8.4103  -8.4103  -8.3946  -8.3667  -4.3942   0.4870   3.9883
     3.9883

          k = 0.9062-0.1295 0.9062 (  1514 PWs)   bands (ev):

    -8.5357  -8.4094  -8.4071  -8.3942  -8.3666  -3.9792  -0.1050   3.3326
     3.9059

          k = 0.7767 0.0000 0.7767 (  1514 PWs)   bands (ev):

    -8.5311  -8.4154  -8.4098  -8.3885  -8.3703  -3.8726  -0.1802   2.6263
     4.1426

          k = 0.0000-1.0356 0.0000 (  1524 PWs)   bands (ev):

    -8.5414  -8.4039  -8.4039  -8.3983  -8.3649  -3.8369  -0.3528   3.7432
     3.7432

          k =-0.2589 0.5178 0.0000 (  1510 PWs)   bands (ev):

    -8.5010  -8.4285  -8.4261  -8.3835  -8.3719  -5.1082   1.6650   4.0132
     5.0515

          k = 0.6473-0.3884 0.9062 (  1507 PWs)   bands (ev):

    -8.5149  -8.4254  -8.4202  -8.3823  -8.3722  -4.5238   0.5262   3.3782
     4.6407

          k = 0.5178-0.2589 0.7767 (  1514 PWs)   bands (ev):

    -8.5203  -8.4248  -8.4181  -8.3803  -8.3732  -4.2035  -0.0243   3.2042
     4.4508

          k = 0.7767-0.2589 1.0356 (  1502 PWs)   bands (ev):

    -8.5262  -8.4168  -8.4117  -8.3898  -8.3686  -4.2915   0.3612   3.3981
     3.9395

          k = 0.6473-0.1295 0.9062 (  1514 PWs)   bands (ev):

    -8.5285  -8.4190  -8.4097  -8.3868  -8.3712  -3.9334  -0.0887   2.8097
     3.7715

          k = 0.5178 0.0000 0.7767 (  1511 PWs)   bands (ev):

    -8.5239  -8.4223  -8.4127  -8.3833  -8.3735  -4.0612   0.0694   2.6739
     4.0954

          k =-0.2589-1.0356 0.0000 (  1514 PWs)   bands (ev):

    -8.5359  -8.4114  -8.4061  -8.3924  -8.3678  -3.8122  -0.2737   3.3047
     3.3979

          k =-0.5178-1.0356 0.0000 (  1540 PWs)   bands (ev):

    -8.5299  -8.4199  -8.4073  -8.3865  -8.3727  -3.7871  -0.1850   2.9349
     3.1190

     highest occupied level (ev):     6.2851

!    total energy              =    -191.02427850 Ry
     estimated scf accuracy    <          8.3E-11 Ry

     The total energy is the sum of the following terms:
     one-electron contribution =    -113.82736405 Ry
     hartree contribution      =      72.42697623 Ry
     xc contribution           =     -57.87664127 Ry
     ewald contribution        =     -91.74724941 Ry

     convergence has been achieved in  20 iterations

     Forces acting on atoms (cartesian axes, Ry/au):

     atom    1 type  1   force =    -0.00000000    0.00000000   -0.00000000
     atom    2 type  2   force =     0.00000000    0.00000000    0.00000000
     The non-local contrib.  to forces
     atom    1 type  1   force =    -0.00000000    0.00000000   -0.00000000
     atom    2 type  2   force =     0.00000000    0.00000000   -0.00000000
     The ionic contribution  to forces
     atom    1 type  1   force =     0.00000000    0.00000000   -0.00000000
     atom    2 type  2   force =    -0.00000000    0.00000000    0.00000000
     The local contribution  to forces
     atom    1 type  1   force =    -0.00000000    0.00000000    0.00000000
     atom    2 type  2   force =     0.00000000    0.00000000    0.00000000
     The core correction contribution to forces
     atom    1 type  1   force =    -0.00000000    0.00000000    0.00000000
     atom    2 type  2   force =     0.00000000   -0.00000000   -0.00000000
     The Hubbard contrib.    to forces
     atom    1 type  1   force =     0.00000000    0.00000000    0.00000000
     atom    2 type  2   force =     0.00000000    0.00000000    0.00000000
     The SCF correction term to forces
     atom    1 type  1   force =     0.00000000    0.00000000    0.00000000
     atom    2 type  2   force =     0.00000000    0.00000000    0.00000000

     Total force =     0.000000     Total SCF correction =     0.000000


     Computing stress (Cartesian axis) and pressure

          total   stress  (Ry/bohr**3)                   (kbar)     P=        2.22
   0.00001511   0.00000000  -0.00000000            2.22        0.00       -0.00
   0.00000000   0.00001511   0.00000000            0.00        2.22        0.00
  -0.00000000   0.00000000   0.00001511           -0.00        0.00        2.22

     Energy error            =      9.6E-04 Ry
     Gradient error          =      1.3E-31 Ry/Bohr
     Cell gradient error     =      2.2E+00 kbar

     number of scf cycles    =   4
     number of bfgs steps    =   3

     enthalpy           old  =    -191.0233229059 Ry
     enthalpy           new  =    -191.0242785036 Ry

     CASE: enthalpy          _new < enthalpy          _old

     new trust radius        =       0.0046328744 bohr
     new conv_thr            =            1.0E-10 Ry

     new unit-cell volume =    318.88828 a.u.^3 (    47.25437 Ang^3 )
     density =      5.08287 g/cm^3

CELL_PARAMETERS (alat= 11.21704970)
  -0.483419549  -0.000000000   0.483419549
   0.000000000   0.483419549   0.483419549
  -0.483419549   0.483419549  -0.000000000

ATOMIC_POSITIONS (alat)
Ga           -0.0000000000        0.0000000000       -0.0000000000
As            0.2417097745        0.2417097745        0.2417097745



     Writing config-only to output data dir /home/paolo/project_labqsm/GaAs/SCRATCH/gallium_arsenide.save/
     NEW-OLD atomic charge density approx. for the potential
     extrapolated charge   18.06999, renormalised to   18.00000

     total cpu time spent up to now is      123.8 secs

     Self-consistent Calculation

     iteration #  1     ecut=    40.00 Ry     beta= 0.70
     Davidson diagonalization with overlap
     ethr =  1.00E-06,  avg # of iterations =  5.8

     total cpu time spent up to now is      125.3 secs

     total energy              =    -191.02128633 Ry
     estimated scf accuracy    <       0.00191655 Ry

     iteration #  2     ecut=    40.00 Ry     beta= 0.70
     Davidson diagonalization with overlap
     ethr =  1.06E-05,  avg # of iterations =  3.2

     total cpu time spent up to now is      126.6 secs

     total energy              =    -191.02417869 Ry
     estimated scf accuracy    <       0.00491904 Ry

     iteration #  3     ecut=    40.00 Ry     beta= 0.70
     Davidson diagonalization with overlap
     ethr =  1.06E-05,  avg # of iterations =  2.0

     total cpu time spent up to now is      127.7 secs

     total energy              =    -191.02429206 Ry
     estimated scf accuracy    <       0.00087937 Ry

     iteration #  4     ecut=    40.00 Ry     beta= 0.70
     Davidson diagonalization with overlap
     ethr =  4.89E-06,  avg # of iterations =  1.5

     total cpu time spent up to now is      128.6 secs

     total energy              =    -191.02432898 Ry
     estimated scf accuracy    <       0.00022738 Ry

     iteration #  5     ecut=    40.00 Ry     beta= 0.70
     Davidson diagonalization with overlap
     ethr =  1.26E-06,  avg # of iterations =  1.0

     total cpu time spent up to now is      129.5 secs

     total energy              =    -191.02432993 Ry
     estimated scf accuracy    <       0.00014097 Ry

     iteration #  6     ecut=    40.00 Ry     beta= 0.70
     Davidson diagonalization with overlap
     ethr =  7.83E-07,  avg # of iterations =  1.0

     total cpu time spent up to now is      130.5 secs

     total energy              =    -191.02433312 Ry
     estimated scf accuracy    <       0.00011962 Ry

     iteration #  7     ecut=    40.00 Ry     beta= 0.70
     Davidson diagonalization with overlap
     ethr =  6.65E-07,  avg # of iterations =  1.0

     total cpu time spent up to now is      131.4 secs

     total energy              =    -191.02429993 Ry
     estimated scf accuracy    <       0.00011961 Ry

     iteration #  8     ecut=    40.00 Ry     beta= 0.70
     Davidson diagonalization with overlap
     ethr =  6.64E-07,  avg # of iterations =  1.0

     total cpu time spent up to now is      132.3 secs

     total energy              =    -191.02427283 Ry
     estimated scf accuracy    <       0.00004748 Ry

     iteration #  9     ecut=    40.00 Ry     beta= 0.70
     Davidson diagonalization with overlap
     ethr =  2.64E-07,  avg # of iterations =  2.0

     total cpu time spent up to now is      133.4 secs

     total energy              =    -191.02428838 Ry
     estimated scf accuracy    <       0.00000056 Ry

     iteration # 10     ecut=    40.00 Ry     beta= 0.70
     Davidson diagonalization with overlap
     ethr =  3.10E-09,  avg # of iterations =  4.0

     total cpu time spent up to now is      134.8 secs

     total energy              =    -191.02428682 Ry
     estimated scf accuracy    <       0.00000425 Ry

     iteration # 11     ecut=    40.00 Ry     beta= 0.70
     Davidson diagonalization with overlap
     ethr =  3.10E-09,  avg # of iterations =  3.1

     total cpu time spent up to now is      136.0 secs

     total energy              =    -191.02428768 Ry
     estimated scf accuracy    <       0.00000034 Ry

     iteration # 12     ecut=    40.00 Ry     beta= 0.70
     Davidson diagonalization with overlap
     ethr =  1.88E-09,  avg # of iterations =  2.0

     total cpu time spent up to now is      137.1 secs

     total energy              =    -191.02428768 Ry
     estimated scf accuracy    <       0.00000037 Ry

     iteration # 13     ecut=    40.00 Ry     beta= 0.70
     Davidson diagonalization with overlap
     ethr =  1.88E-09,  avg # of iterations =  1.0

     total cpu time spent up to now is      138.0 secs

     total energy              =    -191.02428760 Ry
     estimated scf accuracy    <       0.00000026 Ry

     iteration # 14     ecut=    40.00 Ry     beta= 0.70
     Davidson diagonalization with overlap
     ethr =  1.43E-09,  avg # of iterations =  1.0

     total cpu time spent up to now is      138.9 secs

     total energy              =    -191.02428760 Ry
     estimated scf accuracy    <       0.00000007 Ry

     iteration # 15     ecut=    40.00 Ry     beta= 0.70
     Davidson diagonalization with overlap
     ethr =  4.00E-10,  avg # of iterations =  1.3

     total cpu time spent up to now is      139.9 secs

     total energy              =    -191.02428758 Ry
     estimated scf accuracy    <       0.00000004 Ry

     iteration # 16     ecut=    40.00 Ry     beta= 0.70
     Davidson diagonalization with overlap
     ethr =  2.13E-10,  avg # of iterations =  3.0

     total cpu time spent up to now is      141.0 secs

     total energy              =    -191.02428760 Ry
     estimated scf accuracy    <          7.9E-09 Ry

     iteration # 17     ecut=    40.00 Ry     beta= 0.70
     Davidson diagonalization with overlap
     ethr =  4.38E-11,  avg # of iterations =  1.2

     total cpu time spent up to now is      142.0 secs

     total energy              =    -191.02428760 Ry
     estimated scf accuracy    <          5.1E-09 Ry

     iteration # 18     ecut=    40.00 Ry     beta= 0.70
     Davidson diagonalization with overlap
     ethr =  2.83E-11,  avg # of iterations =  1.0

     total cpu time spent up to now is      142.9 secs

     total energy              =    -191.02428760 Ry
     estimated scf accuracy    <          2.4E-09 Ry

     iteration # 19     ecut=    40.00 Ry     beta= 0.70
     Davidson diagonalization with overlap
     ethr =  1.33E-11,  avg # of iterations =  2.0

     total cpu time spent up to now is      143.9 secs

     total energy              =    -191.02428760 Ry
     estimated scf accuracy    <          4.3E-10 Ry

     iteration # 20     ecut=    40.00 Ry     beta= 0.70
     Davidson diagonalization with overlap
     ethr =  2.39E-12,  avg # of iterations =  2.4

     total cpu time spent up to now is      145.0 secs

     End of self-consistent calculation

          k = 0.0000 0.0000 0.0000 (  1459 PWs)   bands (ev):

    -8.4854  -8.4854  -8.4854  -8.4171  -8.4171  -6.1787   6.2397   6.2397
     6.2397

          k =-0.1293 0.1293-0.1293 (  1480 PWs)   bands (ev):

    -8.4962  -8.4825  -8.4825  -8.4174  -8.4174  -6.0085   4.2464   6.0188
     6.0188

          k =-0.2586 0.2586-0.2586 (  1495 PWs)   bands (ev):

    -8.5203  -8.4761  -8.4761  -8.4168  -8.4168  -5.5338   2.1787   5.6018
     5.6018

          k =-0.3879 0.3879-0.3879 (  1504 PWs)   bands (ev):

    -8.5421  -8.4708  -8.4708  -8.4150  -8.4150  -4.9043   0.5300   5.2784
     5.2784

          k = 0.5171-0.5171 0.5171 (  1502 PWs)   bands (ev):

    -8.5508  -8.4691  -8.4691  -8.4137  -8.4137  -4.5527  -0.1702   5.1619
     5.1619

          k = 0.0000 0.2586 0.0000 (  1483 PWs)   bands (ev):

    -8.5026  -8.4798  -8.4798  -8.4198  -8.4154  -5.9517   4.1847   5.6256
     5.6256

          k =-0.1293 0.3879-0.1293 (  1499 PWs)   bands (ev):

    -8.5219  -8.4743  -8.4729  -8.4216  -8.4140  -5.5764   2.6364   5.1298
     5.1632

          k =-0.2586 0.5171-0.2586 (  1497 PWs)   bands (ev):

    -8.5419  -8.4696  -8.4670  -8.4207  -8.4125  -4.9819   0.9865   4.5515
     4.8849

          k = 0.6464-0.3879 0.6464 (  1507 PWs)   bands (ev):

    -8.5529  -8.4673  -8.4651  -8.4175  -8.4129  -4.4822  -0.0337   4.1398
     4.8739

          k = 0.5171-0.2586 0.5171 (  1500 PWs)   bands (ev):

    -8.5497  -8.4675  -8.4668  -8.4159  -8.4149  -4.6067   0.2014   4.0142
     5.1248

          k = 0.3879-0.1293 0.3879 (  1509 PWs)   bands (ev):

    -8.5337  -8.4724  -8.4704  -8.4190  -8.4150  -5.1960   1.5004   4.2458
     5.5590

          k = 0.2586 0.0000 0.2586 (  1498 PWs)   bands (ev):

    -8.5119  -8.4793  -8.4762  -8.4192  -8.4159  -5.7356   3.1089   4.9620
     5.9747

          k = 0.0000 0.5171 0.0000 (  1491 PWs)   bands (ev):

    -8.5380  -8.4653  -8.4653  -8.4267  -8.4113  -5.3126   2.1724   4.6491
     4.6491

          k =-0.1293 0.6464-0.1293 (  1511 PWs)   bands (ev):

    -8.5540  -8.4599  -8.4584  -8.4288  -8.4097  -4.8070   1.0646   3.9581
     4.3345

          k = 0.7757-0.2586 0.7757 (  1504 PWs)   bands (ev):

    -8.5617  -8.4599  -8.4556  -8.4260  -8.4105  -4.2803   0.1335   3.1753
     4.3162

          k = 0.6464-0.1293 0.6464 (  1509 PWs)   bands (ev):

    -8.5594  -8.4625  -8.4578  -8.4210  -8.4145  -4.1987   0.0186   2.7839
     4.5958

          k = 0.5171 0.0000 0.5171 (  1506 PWs)   bands (ev):

    -8.5488  -8.4658  -8.4643  -8.4184  -8.4165  -4.6577   0.7196   3.0619
     5.0890

          k = 0.0000 0.7757 0.0000 (  1512 PWs)   bands (ev):

    -8.5682  -8.4503  -8.4503  -8.4347  -8.4073  -4.4243   0.4525   3.9548
     3.9548

          k = 0.9050-0.1293 0.9050 (  1514 PWs)   bands (ev):

    -8.5740  -8.4494  -8.4472  -8.4343  -8.4071  -4.0131  -0.1352   3.3027
     3.8728

          k = 0.7757 0.0000 0.7757 (  1514 PWs)   bands (ev):

    -8.5694  -8.4553  -8.4498  -8.4287  -8.4107  -3.9079  -0.2096   2.6002
     4.1084

          k = 0.0000-1.0343 0.0000 (  1524 PWs)   bands (ev):

    -8.5796  -8.4440  -8.4440  -8.4383  -8.4055  -3.8722  -0.3810   3.7109
     3.7109

          k =-0.2586 0.5171 0.0000 (  1510 PWs)   bands (ev):

    -8.5396  -8.4683  -8.4659  -8.4238  -8.4124  -5.1335   1.6256   3.9800
     5.0126

          k = 0.6464-0.3879 0.9050 (  1507 PWs)   bands (ev):

    -8.5534  -8.4652  -8.4601  -8.4226  -8.4126  -4.5534   0.4936   3.3469
     4.6042

          k = 0.5171-0.2586 0.7757 (  1514 PWs)   bands (ev):

    -8.5587  -8.4646  -8.4580  -8.4206  -8.4137  -4.2360  -0.0527   3.1730
     4.4154

          k = 0.7757-0.2586 1.0343 (  1502 PWs)   bands (ev):

    -8.5646  -8.4567  -8.4517  -8.4300  -8.4091  -4.3226   0.3278   3.3677
     3.9068

          k = 0.6464-0.1293 0.9050 (  1514 PWs)   bands (ev):

    -8.5669  -8.4589  -8.4497  -8.4270  -8.4117  -3.9681  -0.1187   2.7823
     3.7397

          k = 0.5171 0.0000 0.7757 (  1511 PWs)   bands (ev):

    -8.5622  -8.4622  -8.4527  -8.4236  -8.4140  -4.0947   0.0384   2.6473
     4.0619

          k =-0.2586-1.0343 0.0000 (  1514 PWs)   bands (ev):

    -8.5742  -8.4514  -8.4461  -8.4326  -8.4083  -3.8479  -0.3025   3.2748
     3.3680

          k =-0.5171-1.0343 0.0000 (  1540 PWs)   bands (ev):

    -8.5682  -8.4598  -8.4474  -8.4267  -8.4131  -3.8232  -0.2146   2.9070
     3.0910

     highest occupied level (ev):     6.2397

!    total energy              =    -191.02428760 Ry
     estimated scf accuracy    <          2.1E-11 Ry

     The total energy is the sum of the following terms:
     one-electron contribution =    -114.01960379 Ry
     hartree contribution      =      72.49623591 Ry
     xc contribution           =     -57.87276059 Ry
     ewald contribution        =     -91.62815912 Ry

     convergence has been achieved in  20 iterations

     Forces acting on atoms (cartesian axes, Ry/au):

     atom    1 type  1   force =     0.00000000   -0.00000000    0.00000000
     atom    2 type  2   force =    -0.00000000   -0.00000000   -0.00000000
     The non-local contrib.  to forces
     atom    1 type  1   force =     0.00000000   -0.00000000   -0.00000000
     atom    2 type  2   force =    -0.00000000    0.00000000   -0.00000000
     The ionic contribution  to forces
     atom    1 type  1   force =     0.00000000    0.00000000   -0.00000000
     atom    2 type  2   force =     0.00000000    0.00000000    0.00000000
     The local contribution  to forces
     atom    1 type  1   force =    -0.00000000    0.00000000    0.00000000
     atom    2 type  2   force =     0.00000000    0.00000000   -0.00000000
     The core correction contribution to forces
     atom    1 type  1   force =    -0.00000000    0.00000000    0.00000000
     atom    2 type  2   force =    -0.00000000   -0.00000000    0.00000000
     The Hubbard contrib.    to forces
     atom    1 type  1   force =     0.00000000    0.00000000    0.00000000
     atom    2 type  2   force =     0.00000000    0.00000000    0.00000000
     The SCF correction term to forces
     atom    1 type  1   force =     0.00000000    0.00000000    0.00000000
     atom    2 type  2   force =     0.00000000    0.00000000   -0.00000000

     Total force =     0.000000     Total SCF correction =     0.000000


     Computing stress (Cartesian axis) and pressure

          total   stress  (Ry/bohr**3)                   (kbar)     P=       -0.17
  -0.00000118  -0.00000000   0.00000000           -0.17       -0.00        0.00
  -0.00000000  -0.00000118  -0.00000000           -0.00       -0.17       -0.00
   0.00000000   0.00000000  -0.00000118            0.00        0.00       -0.17

     Energy error            =      9.1E-06 Ry
     Gradient error          =      1.1E-31 Ry/Bohr
     Cell gradient error     =      1.7E-01 kbar

     bfgs converged in   5 scf cycles and   4 bfgs steps
     (criteria: energy <  1.0E-05 Ry, force <  1.0E-04 Ry/Bohr, cell <  5.0E-01 kbar)

     End of BFGS Geometry Optimization

     Final enthalpy           =    -191.0242875966 Ry

     File /home/paolo/project_labqsm/GaAs/SCRATCH/gallium_arsenide.bfgs deleted, as requested
Begin final coordinates
     new unit-cell volume =    318.88828 a.u.^3 (    47.25437 Ang^3 )
     density =      5.08287 g/cm^3

CELL_PARAMETERS (alat= 11.21704970)
  -0.483419549  -0.000000000   0.483419549
   0.000000000   0.483419549   0.483419549
  -0.483419549   0.483419549  -0.000000000

ATOMIC_POSITIONS (alat)
Ga           -0.0000000000        0.0000000000       -0.0000000000
As            0.2417097745        0.2417097745        0.2417097745
End final coordinates



     Writing config-only to output data dir /home/paolo/project_labqsm/GaAs/SCRATCH/gallium_arsenide.save/

     Final scf calculation at the relaxed structure.
     The G-vectors are recalculated for the final unit cell
     Results may differ from those at the preceding step.

     G-vector sticks info
     --------------------
     sticks:   dense  smooth     PW     G-vecs:    dense   smooth      PW
     Sum        1627     649    199                43143    10969    1917

     Using Slab Decomposition



     bravais-lattice index     =            2
     lattice parameter (alat)  =      11.2170  a.u.
     unit-cell volume          =     318.8883 (a.u.)^3
     number of atoms/cell      =            2
     number of atomic types    =            2
     number of electrons       =        18.00
     number of Kohn-Sham states=            9
     kinetic-energy cutoff     =      40.0000  Ry
     charge density cutoff     =     400.0000  Ry
     scf convergence threshold =      1.0E-10
     mixing beta               =       0.7000
     number of iterations used =            8  plain     mixing
     press convergence thresh. =      5.0E-01
     Exchange-correlation= PBE
                           (   1   4   3   4   0   0   0)

     celldm(1)=  11.217050  celldm(2)=   0.000000  celldm(3)=   0.000000
     celldm(4)=   0.000000  celldm(5)=   0.000000  celldm(6)=   0.000000

     crystal axes: (cart. coord. in units of alat)
               a(1) = (  -0.483420  -0.000000   0.483420 )  
               a(2) = (   0.000000   0.483420   0.483420 )  
               a(3) = (  -0.483420   0.483420  -0.000000 )  

     reciprocal axes: (cart. coord. in units 2 pi/alat)
               b(1) = ( -1.034298 -1.034298  1.034298 )  
               b(2) = (  1.034298  1.034298  1.034298 )  
               b(3) = ( -1.034298  1.034298 -1.034298 )  


     PseudoPot. # 1 for Ga read from file:
     /home/paolo/project_labqsm/pseudopotentials/Ga.pbe-dn-rrkjus_psl.0.2.UPF
     MD5 check sum: ffdfce4fe0c152725d7fa40f12f9e9e5
     Pseudo is Ultrasoft + core correction, Zval = 13.0
     Generated using "atomic" code by A. Dal Corso  v.5.0.2 svn rev. 9415
     Using radial grid of 1205 points,  6 beta functions with: 
                l(1) =   0
                l(2) =   0
                l(3) =   1
                l(4) =   1
                l(5) =   2
                l(6) =   2
     Q(r) pseudized with 0 coefficients 


     PseudoPot. # 2 for As read from file:
     /home/paolo/project_labqsm/pseudopotentials/As.pbe-n-rrkjus_psl.0.2.UPF
     MD5 check sum: f98050c7212d27f7cb33035312670de9
     Pseudo is Ultrasoft + core correction, Zval =  5.0
     Generated using "atomic" code by A. Dal Corso  v.5.0.2 svn rev. 9415
     Using radial grid of 1209 points,  4 beta functions with: 
                l(1) =   0
                l(2) =   0
                l(3) =   1
                l(4) =   1
     Q(r) pseudized with 0 coefficients 


     atomic species   valence    mass     pseudopotential
        Ga            13.00    69.72300     Ga( 1.00)
        As             5.00    74.92160     As( 1.00)

     24 Sym. Ops. (no inversion) found



   Cartesian axes

     site n.     atom                  positions (alat units)
         1           Ga  tau(   1) = (  -0.0000000   0.0000000  -0.0000000  )
         2           As  tau(   2) = (   0.2417098   0.2417098   0.2417098  )

     number of k points=    29
                       cart. coord. in units 2pi/alat
        k(    1) = (   0.0000000   0.0000000   0.0000000), wk =   0.0039062
        k(    2) = (  -0.1292873   0.1292873  -0.1292873), wk =   0.0312500
        k(    3) = (  -0.2585746   0.2585746  -0.2585746), wk =   0.0312500
        k(    4) = (  -0.3878618   0.3878618  -0.3878618), wk =   0.0312500
        k(    5) = (   0.5171491  -0.5171491   0.5171491), wk =   0.0156250
        k(    6) = (   0.0000000   0.2585746   0.0000000), wk =   0.0234375
        k(    7) = (  -0.1292873   0.3878618  -0.1292873), wk =   0.0937500
        k(    8) = (  -0.2585746   0.5171491  -0.2585746), wk =   0.0937500
        k(    9) = (   0.6464364  -0.3878618   0.6464364), wk =   0.0937500
        k(   10) = (   0.5171491  -0.2585746   0.5171491), wk =   0.0937500
        k(   11) = (   0.3878618  -0.1292873   0.3878618), wk =   0.0937500
        k(   12) = (   0.2585746   0.0000000   0.2585746), wk =   0.0468750
        k(   13) = (   0.0000000   0.5171491   0.0000000), wk =   0.0234375
        k(   14) = (  -0.1292873   0.6464364  -0.1292873), wk =   0.0937500
        k(   15) = (   0.7757237  -0.2585746   0.7757237), wk =   0.0937500
        k(   16) = (   0.6464364  -0.1292873   0.6464364), wk =   0.0937500
        k(   17) = (   0.5171491   0.0000000   0.5171491), wk =   0.0468750
        k(   18) = (   0.0000000   0.7757237   0.0000000), wk =   0.0234375
        k(   19) = (   0.9050110  -0.1292873   0.9050110), wk =   0.0937500
        k(   20) = (   0.7757237   0.0000000   0.7757237), wk =   0.0468750
        k(   21) = (   0.0000000  -1.0342983   0.0000000), wk =   0.0117188
        k(   22) = (  -0.2585746   0.5171491   0.0000000), wk =   0.0937500
        k(   23) = (   0.6464364  -0.3878618   0.9050110), wk =   0.1875000
        k(   24) = (   0.5171491  -0.2585746   0.7757237), wk =   0.0937500
        k(   25) = (   0.7757237  -0.2585746   1.0342983), wk =   0.0937500
        k(   26) = (   0.6464364  -0.1292873   0.9050110), wk =   0.1875000
        k(   27) = (   0.5171491   0.0000000   0.7757237), wk =   0.0937500
        k(   28) = (  -0.2585746  -1.0342983   0.0000000), wk =   0.0468750
        k(   29) = (  -0.5171491  -1.0342983   0.0000000), wk =   0.0234375

     Dense  grid:    43143 G-vectors     FFT dimensions: (  50,  50,  50)

     Smooth grid:    10969 G-vectors     FFT dimensions: (  32,  32,  32)

     Estimated max dynamical RAM per process >     173.21 MB

     Initial potential from superposition of free atoms

     starting charge      17.9968, renormalised to      18.0000
     Starting wfcs are   13 randomized atomic wfcs

     total cpu time spent up to now is      155.7 secs

     Self-consistent Calculation

     iteration #  1     ecut=    40.00 Ry     beta= 0.70
     Davidson diagonalization with overlap
     ethr =  1.00E-06,  avg # of iterations =  7.7

     total cpu time spent up to now is      157.5 secs

     total energy              =    -191.01202734 Ry
     estimated scf accuracy    <       0.04891393 Ry

     iteration #  2     ecut=    40.00 Ry     beta= 0.70
     Davidson diagonalization with overlap
     ethr =  2.72E-04,  avg # of iterations =  2.2

     total cpu time spent up to now is      158.5 secs

     total energy              =    -191.02154115 Ry
     estimated scf accuracy    <       0.00957134 Ry

     iteration #  3     ecut=    40.00 Ry     beta= 0.70
     Davidson diagonalization with overlap
     ethr =  5.32E-05,  avg # of iterations =  2.0

     total cpu time spent up to now is      159.6 secs

     total energy              =    -191.02328783 Ry
     estimated scf accuracy    <       0.00034214 Ry

     iteration #  4     ecut=    40.00 Ry     beta= 0.70
     Davidson diagonalization with overlap
     ethr =  1.90E-06,  avg # of iterations =  3.1

     total cpu time spent up to now is      160.6 secs

     total energy              =    -191.02333107 Ry
     estimated scf accuracy    <       0.00007833 Ry

     iteration #  5     ecut=    40.00 Ry     beta= 0.70
     Davidson diagonalization with overlap
     ethr =  4.35E-07,  avg # of iterations =  2.0

     total cpu time spent up to now is      161.5 secs

     total energy              =    -191.02333460 Ry
     estimated scf accuracy    <       0.00000848 Ry

     iteration #  6     ecut=    40.00 Ry     beta= 0.70
     Davidson diagonalization with overlap
     ethr =  4.71E-08,  avg # of iterations =  3.6

     total cpu time spent up to now is      162.6 secs

     total energy              =    -191.02333846 Ry
     estimated scf accuracy    <       0.00000550 Ry

     iteration #  7     ecut=    40.00 Ry     beta= 0.70
     Davidson diagonalization with overlap
     ethr =  3.05E-08,  avg # of iterations =  2.3

     total cpu time spent up to now is      163.6 secs

     total energy              =    -191.02334009 Ry
     estimated scf accuracy    <       0.00000045 Ry

     iteration #  8     ecut=    40.00 Ry     beta= 0.70
     Davidson diagonalization with overlap
     ethr =  2.52E-09,  avg # of iterations =  2.0

     total cpu time spent up to now is      164.5 secs

     total energy              =    -191.02334001 Ry
     estimated scf accuracy    <       0.00000021 Ry

     iteration #  9     ecut=    40.00 Ry     beta= 0.70
     Davidson diagonalization with overlap
     ethr =  1.16E-09,  avg # of iterations =  2.2

     total cpu time spent up to now is      165.4 secs

     total energy              =    -191.02334005 Ry
     estimated scf accuracy    <          2.5E-10 Ry

     iteration # 10     ecut=    40.00 Ry     beta= 0.70
     Davidson diagonalization with overlap
     ethr =  1.37E-12,  avg # of iterations =  6.4

     total cpu time spent up to now is      166.8 secs

     End of self-consistent calculation

          k = 0.0000 0.0000 0.0000 (  1363 PWs)   bands (ev):

    -8.4843  -8.4843  -8.4843  -8.4155  -8.4155  -6.1787   6.2397   6.2397
     6.2397

          k =-0.1293 0.1293-0.1293 (  1372 PWs)   bands (ev):

    -8.4948  -8.4813  -8.4813  -8.4157  -8.4157  -6.0085   4.2463   6.0189
     6.0189

          k =-0.2586 0.2586-0.2586 (  1363 PWs)   bands (ev):

    -8.5186  -8.4745  -8.4745  -8.4151  -8.4151  -5.5337   2.1787   5.6019
     5.6019

          k =-0.3879 0.3879-0.3879 (  1371 PWs)   bands (ev):

    -8.5407  -8.4692  -8.4692  -8.4132  -8.4132  -4.9043   0.5300   5.2785
     5.2785

          k = 0.5171-0.5171 0.5171 (  1380 PWs)   bands (ev):

    -8.5492  -8.4677  -8.4677  -8.4120  -8.4120  -4.5526  -0.1703   5.1620
     5.1620

          k = 0.0000 0.2586 0.0000 (  1371 PWs)   bands (ev):

    -8.5015  -8.4782  -8.4782  -8.4181  -8.4140  -5.9516   4.1846   5.6257
     5.6257

          k =-0.1293 0.3879-0.1293 (  1352 PWs)   bands (ev):

    -8.5204  -8.4725  -8.4712  -8.4198  -8.4120  -5.5763   2.6364   5.1298
     5.1633

          k =-0.2586 0.5171-0.2586 (  1354 PWs)   bands (ev):

    -8.5401  -8.4678  -8.4654  -8.4190  -8.4107  -4.9819   0.9864   4.5515
     4.8850

          k = 0.6464-0.3879 0.6464 (  1362 PWs)   bands (ev):

    -8.5513  -8.4656  -8.4633  -8.4157  -8.4110  -4.4822  -0.0338   4.1398
     4.8739

          k = 0.5171-0.2586 0.5171 (  1369 PWs)   bands (ev):

    -8.5481  -8.4659  -8.4652  -8.4142  -8.4133  -4.6066   0.2013   4.0143
     5.1248

          k = 0.3879-0.1293 0.3879 (  1365 PWs)   bands (ev):

    -8.5319  -8.4707  -8.4688  -8.4172  -8.4131  -5.1959   1.5003   4.2458
     5.5591

          k = 0.2586 0.0000 0.2586 (  1375 PWs)   bands (ev):

    -8.5103  -8.4779  -8.4747  -8.4175  -8.4143  -5.7356   3.1088   4.9621
     5.9748

          k = 0.0000 0.5171 0.0000 (  1355 PWs)   bands (ev):

    -8.5368  -8.4633  -8.4633  -8.4251  -8.4094  -5.3126   2.1723   4.6491
     4.6491

          k =-0.1293 0.6464-0.1293 (  1358 PWs)   bands (ev):

    -8.5524  -8.4581  -8.4564  -8.4272  -8.4076  -4.8069   1.0645   3.9582
     4.3346

          k = 0.7757-0.2586 0.7757 (  1359 PWs)   bands (ev):

    -8.5600  -8.4580  -8.4538  -8.4244  -8.4086  -4.2802   0.1334   3.1754
     4.3162

          k = 0.6464-0.1293 0.6464 (  1360 PWs)   bands (ev):

    -8.5578  -8.4607  -8.4558  -8.4191  -8.4129  -4.1986   0.0185   2.7840
     4.5959

          k = 0.5171 0.0000 0.5171 (  1360 PWs)   bands (ev):

    -8.5470  -8.4641  -8.4625  -8.4167  -8.4147  -4.6576   0.7194   3.0620
     5.0890

          k = 0.0000 0.7757 0.0000 (  1359 PWs)   bands (ev):

    -8.5667  -8.4484  -8.4484  -8.4329  -8.4051  -4.4243   0.4524   3.9549
     3.9549

          k = 0.9050-0.1293 0.9050 (  1359 PWs)   bands (ev):

    -8.5723  -8.4476  -8.4452  -8.4325  -8.4052  -4.0130  -0.1354   3.3028
     3.8728

          k = 0.7757 0.0000 0.7757 (  1360 PWs)   bands (ev):

    -8.5677  -8.4536  -8.4478  -8.4269  -8.4088  -3.9077  -0.2098   2.6003
     4.1084

          k = 0.0000-1.0343 0.0000 (  1362 PWs)   bands (ev):

    -8.5780  -8.4421  -8.4421  -8.4364  -8.4035  -3.8720  -0.3812   3.7109
     3.7109

          k =-0.2586 0.5171 0.0000 (  1359 PWs)   bands (ev):

    -8.5378  -8.4665  -8.4640  -8.4220  -8.4106  -5.1334   1.6255   3.9801
     5.0126

          k = 0.6464-0.3879 0.9050 (  1366 PWs)   bands (ev):

    -8.5517  -8.4635  -8.4583  -8.4209  -8.4108  -4.5533   0.4934   3.3470
     4.6043

          k = 0.5171-0.2586 0.7757 (  1374 PWs)   bands (ev):

    -8.5570  -8.4629  -8.4562  -8.4189  -8.4120  -4.2359  -0.0529   3.1731
     4.4154

          k = 0.7757-0.2586 1.0343 (  1353 PWs)   bands (ev):

    -8.5629  -8.4549  -8.4499  -8.4283  -8.4072  -4.3226   0.3276   3.3677
     3.9069

          k = 0.6464-0.1293 0.9050 (  1364 PWs)   bands (ev):

    -8.5652  -8.4571  -8.4478  -8.4252  -8.4099  -3.9680  -0.1189   2.7824
     3.7397

          k = 0.5171 0.0000 0.7757 (  1357 PWs)   bands (ev):

    -8.5605  -8.4605  -8.4508  -8.4216  -8.4122  -4.0946   0.0382   2.6473
     4.0620

          k =-0.2586-1.0343 0.0000 (  1362 PWs)   bands (ev):

    -8.5726  -8.4496  -8.4443  -8.4307  -8.4064  -3.8478  -0.3027   3.2748
     3.3681

          k =-0.5171-1.0343 0.0000 (  1348 PWs)   bands (ev):

    -8.5663  -8.4578  -8.4451  -8.4244  -8.4109  -3.8230  -0.2149   2.9071
     3.0911

     highest occupied level (ev):     6.2397

!    total energy              =    -191.02334005 Ry
     estimated scf accuracy    <          6.9E-11 Ry

     The total energy is the sum of the following terms:
     one-electron contribution =    -114.01883523 Ry
     hartree contribution      =      72.49667078 Ry
     xc contribution           =     -57.87301648 Ry
     ewald contribution        =     -91.62815912 Ry

     convergence has been achieved in  10 iterations

     Forces acting on atoms (cartesian axes, Ry/au):

     atom    1 type  1   force =     0.00000000    0.00000000    0.00000000
     atom    2 type  2   force =    -0.00000000   -0.00000000   -0.00000000
     The non-local contrib.  to forces
     atom    1 type  1   force =     0.00000000   -0.00000000    0.00000000
     atom    2 type  2   force =     0.00000000   -0.00000000    0.00000000
     The ionic contribution  to forces
     atom    1 type  1   force =     0.00000000   -0.00000000    0.00000000
     atom    2 type  2   force =     0.00000000   -0.00000000   -0.00000000
     The local contribution  to forces
     atom    1 type  1   force =    -0.00000000   -0.00000000    0.00000000
     atom    2 type  2   force =     0.00000000    0.00000000   -0.00000000
     The core correction contribution to forces
     atom    1 type  1   force =     0.00000000   -0.00000000   -0.00000000
     atom    2 type  2   force =    -0.00000000   -0.00000000    0.00000000
     The Hubbard contrib.    to forces
     atom    1 type  1   force =     0.00000000    0.00000000    0.00000000
     atom    2 type  2   force =     0.00000000    0.00000000    0.00000000
     The SCF correction term to forces
     atom    1 type  1   force =     0.00000000    0.00000000   -0.00000000
     atom    2 type  2   force =    -0.00000000    0.00000000    0.00000000

     Total force =     0.000000     Total SCF correction =     0.000000


     Computing stress (Cartesian axis) and pressure

          total   stress  (Ry/bohr**3)                   (kbar)     P=       -0.23
  -0.00000157   0.00000000   0.00000000           -0.23        0.00        0.00
  -0.00000000  -0.00000157   0.00000000           -0.00       -0.23        0.00
   0.00000000   0.00000000  -0.00000157            0.00        0.00       -0.23


     Writing all to output data dir /home/paolo/project_labqsm/GaAs/SCRATCH/gallium_arsenide.save/

     init_run     :      6.31s CPU      6.58s WALL (       2 calls)
     electrons    :     87.05s CPU    109.71s WALL (       6 calls)
     update_pot   :     11.30s CPU     11.29s WALL (       4 calls)
     forces       :      9.81s CPU     10.44s WALL (       6 calls)
     stress       :     28.56s CPU     34.82s WALL (       6 calls)

     Called by init_run:
     wfcinit      :      0.62s CPU      0.63s WALL (       2 calls)
     potinit      :      1.70s CPU      1.70s WALL (       2 calls)
     hinit0       :      3.77s CPU      3.77s WALL (       2 calls)

     Called by electrons:
     c_bands      :     55.09s CPU     56.41s WALL (     101 calls)
     sum_band     :     17.69s CPU     28.59s WALL (     101 calls)
     v_of_rho     :      5.03s CPU      5.09s WALL (     106 calls)
     newd         :      9.06s CPU     20.22s WALL (     106 calls)
     mix_rho      :      0.59s CPU      0.51s WALL (     101 calls)

     Called by c_bands:
     init_us_2    :      2.08s CPU      1.89s WALL (    6264 calls)
     init_us_2:cp :      2.06s CPU      1.87s WALL (    6264 calls)
     cegterg      :     52.19s CPU     53.16s WALL (    2929 calls)

     Called by *egterg:
     cdiaghg      :      0.53s CPU      0.57s WALL (    9967 calls)
     h_psi        :     42.41s CPU     43.28s WALL (   10170 calls)
     s_psi        :      2.42s CPU      2.23s WALL (   10170 calls)
     g_psi        :      0.20s CPU      0.21s WALL (    7183 calls)

     Called by h_psi:
     h_psi:calbec :      2.83s CPU      3.05s WALL (   10170 calls)
     vloc_psi     :     37.08s CPU     37.76s WALL (   10170 calls)
     add_vuspsi   :      2.36s CPU      2.24s WALL (   10170 calls)

     General routines
     calbec       :      4.19s CPU      4.36s WALL (   13969 calls)
     fft          :      3.28s CPU      3.10s WALL (    1521 calls)
     ffts         :      0.03s CPU      0.06s WALL (     207 calls)
     fftw         :     36.75s CPU     36.58s WALL (  178159 calls)
     interpolate  :      0.33s CPU      0.29s WALL (     106 calls)


     PWSCF        :   2m23.55s CPU   2m53.80s WALL


   This run was terminated on:  11:30: 4  11Jun2024            

=------------------------------------------------------------------------------=
   JOB DONE.
=------------------------------------------------------------------------------=
