
     Program PWSCF v.7.2 starts on 25May2024 at 12:21: 8 

     This program is part of the open-source Quantum ESPRESSO suite
     for quantum simulation of materials; please cite
         "P. Giannozzi et al., J. Phys.:Condens. Matter 21 395502 (2009);
         "P. Giannozzi et al., J. Phys.:Condens. Matter 29 465901 (2017);
         "P. Giannozzi et al., J. Chem. Phys. 152 154105 (2020);
          URL http://www.quantum-espresso.org", 
     in publications or presentations arising from this work. More details at
     http://www.quantum-espresso.org/quote

     Serial version
     8857 MiB available memory on the printing compute node when the environment starts

     Waiting for input...
     Reading input from standard input

     Current dimensions of program PWSCF are:
     Max number of different atomic species (ntypx) = 10
     Max number of k-points (npk) =  40000
     Max angular momentum in pseudopotentials (lmaxx) =  4


     G-vector sticks info
     --------------------
     sticks:   dense  smooth     PW     G-vecs:    dense   smooth      PW
     Sum        1039    1039    313                22219    22219    3695

     Using Slab Decomposition



     bravais-lattice index     =            2
     lattice parameter (alat)  =      11.2170  a.u.
     unit-cell volume          =     352.8385 (a.u.)^3
     number of atoms/cell      =            2
     number of atomic types    =            2
     number of electrons       =         8.00
     number of Kohn-Sham states=            4
     kinetic-energy cutoff     =      60.0000  Ry
     charge density cutoff     =     240.0000  Ry
     scf convergence threshold =      1.0E-08
     mixing beta               =       0.7000
     number of iterations used =            8  plain     mixing
     energy convergence thresh.=      1.0E-05
     force convergence thresh. =      1.0E-04
     press convergence thresh. =      5.0E-01
     Exchange-correlation= SLA  PZ   NOGX NOGC
                           (   1   1   0   0   0   0   0)
     nstep                     =           50


     celldm(1)=  11.217050  celldm(2)=   0.000000  celldm(3)=   0.000000
     celldm(4)=   0.000000  celldm(5)=   0.000000  celldm(6)=   0.000000

     crystal axes: (cart. coord. in units of alat)
               a(1) = (  -0.500000   0.000000   0.500000 )  
               a(2) = (   0.000000   0.500000   0.500000 )  
               a(3) = (  -0.500000   0.500000   0.000000 )  

     reciprocal axes: (cart. coord. in units 2 pi/alat)
               b(1) = ( -1.000000 -1.000000  1.000000 )  
               b(2) = (  1.000000  1.000000  1.000000 )  
               b(3) = ( -1.000000  1.000000 -1.000000 )  


     PseudoPot. # 1 for Ga read from file:
     /home/paolo/project_labqsm/pseudopotentials/Ga.pz-bhs.UPF
     MD5 check sum: 09b06f4702dea281feaf053846378b49
     Pseudo is Norm-conserving, Zval =  3.0
     Generated by new atomic code, or converted to UPF format
     Using radial grid of  523 points,  2 beta functions with: 
                l(1) =   0
                l(2) =   1

     PseudoPot. # 2 for As read from file:
     /home/paolo/project_labqsm/pseudopotentials/As.pz-bhs.UPF
     MD5 check sum: d67708448008dff3ec15a9356ed645c7
     Pseudo is Norm-conserving, Zval =  5.0
     Generated by new atomic code, or converted to UPF format
     Using radial grid of  525 points,  2 beta functions with: 
                l(1) =   0
                l(2) =   1

     atomic species   valence    mass     pseudopotential
        Ga             3.00    69.72300     Ga( 1.00)
        As             5.00    74.92200     As( 1.00)

     24 Sym. Ops. (no inversion) found



   Cartesian axes

     site n.     atom                  positions (alat units)
         1           Ga  tau(   1) = (   0.0000000   0.0000000   0.0000000  )
         2           As  tau(   2) = (   0.2500000   0.2500000   0.2500000  )

     number of k points=    29
                       cart. coord. in units 2pi/alat
        k(    1) = (   0.0000000   0.0000000   0.0000000), wk =   0.0039062
        k(    2) = (  -0.1250000   0.1250000  -0.1250000), wk =   0.0312500
        k(    3) = (  -0.2500000   0.2500000  -0.2500000), wk =   0.0312500
        k(    4) = (  -0.3750000   0.3750000  -0.3750000), wk =   0.0312500
        k(    5) = (   0.5000000  -0.5000000   0.5000000), wk =   0.0156250
        k(    6) = (   0.0000000   0.2500000   0.0000000), wk =   0.0234375
        k(    7) = (  -0.1250000   0.3750000  -0.1250000), wk =   0.0937500
        k(    8) = (  -0.2500000   0.5000000  -0.2500000), wk =   0.0937500
        k(    9) = (   0.6250000  -0.3750000   0.6250000), wk =   0.0937500
        k(   10) = (   0.5000000  -0.2500000   0.5000000), wk =   0.0937500
        k(   11) = (   0.3750000  -0.1250000   0.3750000), wk =   0.0937500
        k(   12) = (   0.2500000   0.0000000   0.2500000), wk =   0.0468750
        k(   13) = (   0.0000000   0.5000000   0.0000000), wk =   0.0234375
        k(   14) = (  -0.1250000   0.6250000  -0.1250000), wk =   0.0937500
        k(   15) = (   0.7500000  -0.2500000   0.7500000), wk =   0.0937500
        k(   16) = (   0.6250000  -0.1250000   0.6250000), wk =   0.0937500
        k(   17) = (   0.5000000   0.0000000   0.5000000), wk =   0.0468750
        k(   18) = (   0.0000000   0.7500000   0.0000000), wk =   0.0234375
        k(   19) = (   0.8750000  -0.1250000   0.8750000), wk =   0.0937500
        k(   20) = (   0.7500000   0.0000000   0.7500000), wk =   0.0468750
        k(   21) = (   0.0000000  -1.0000000   0.0000000), wk =   0.0117188
        k(   22) = (  -0.2500000   0.5000000   0.0000000), wk =   0.0937500
        k(   23) = (   0.6250000  -0.3750000   0.8750000), wk =   0.1875000
        k(   24) = (   0.5000000  -0.2500000   0.7500000), wk =   0.0937500
        k(   25) = (   0.7500000  -0.2500000   1.0000000), wk =   0.0937500
        k(   26) = (   0.6250000  -0.1250000   0.8750000), wk =   0.1875000
        k(   27) = (   0.5000000   0.0000000   0.7500000), wk =   0.0937500
        k(   28) = (  -0.2500000  -1.0000000   0.0000000), wk =   0.0468750
        k(   29) = (  -0.5000000  -1.0000000   0.0000000), wk =   0.0234375

     Dense  grid:    22219 G-vectors     FFT dimensions: (  40,  40,  40)

     Estimated max dynamical RAM per process >      20.83 MB

     Initial potential from superposition of free atoms

     starting charge       7.9979, renormalised to       8.0000
     Starting wfcs are    8 randomized atomic wfcs

     total cpu time spent up to now is        0.7 secs

     Self-consistent Calculation

     iteration #  1     ecut=    60.00 Ry     beta= 0.70
     Davidson diagonalization with overlap
     ethr =  1.00E-02,  avg # of iterations =  1.2

     Threshold (ethr) on eigenvalues was too large:
     Diagonalizing with lowered threshold

     Davidson diagonalization with overlap
     ethr =  4.35E-04,  avg # of iterations =  3.2

     total cpu time spent up to now is        1.6 secs

     total energy              =     -17.29347219 Ry
     estimated scf accuracy    <       0.03718931 Ry

     iteration #  2     ecut=    60.00 Ry     beta= 0.70
     Davidson diagonalization with overlap
     ethr =  4.65E-04,  avg # of iterations =  2.0

     total cpu time spent up to now is        2.1 secs

     total energy              =     -17.29998607 Ry
     estimated scf accuracy    <       0.00323530 Ry

     iteration #  3     ecut=    60.00 Ry     beta= 0.70
     Davidson diagonalization with overlap
     ethr =  4.04E-05,  avg # of iterations =  2.7

     total cpu time spent up to now is        2.6 secs

     total energy              =     -17.30052005 Ry
     estimated scf accuracy    <       0.00048078 Ry

     iteration #  4     ecut=    60.00 Ry     beta= 0.70
     Davidson diagonalization with overlap
     ethr =  6.01E-06,  avg # of iterations =  3.6

     total cpu time spent up to now is        3.2 secs

     total energy              =     -17.30081902 Ry
     estimated scf accuracy    <       0.00022379 Ry

     iteration #  5     ecut=    60.00 Ry     beta= 0.70
     Davidson diagonalization with overlap
     ethr =  2.80E-06,  avg # of iterations =  1.7

     total cpu time spent up to now is        3.6 secs

     total energy              =     -17.30076623 Ry
     estimated scf accuracy    <       0.00010157 Ry

     iteration #  6     ecut=    60.00 Ry     beta= 0.70
     Davidson diagonalization with overlap
     ethr =  1.27E-06,  avg # of iterations =  3.7

     total cpu time spent up to now is        4.1 secs

     total energy              =     -17.30081733 Ry
     estimated scf accuracy    <       0.00003290 Ry

     iteration #  7     ecut=    60.00 Ry     beta= 0.70
     Davidson diagonalization with overlap
     ethr =  4.11E-07,  avg # of iterations =  2.0

     total cpu time spent up to now is        4.5 secs

     total energy              =     -17.30081979 Ry
     estimated scf accuracy    <       0.00001184 Ry

     iteration #  8     ecut=    60.00 Ry     beta= 0.70
     Davidson diagonalization with overlap
     ethr =  1.48E-07,  avg # of iterations =  1.8

     total cpu time spent up to now is        5.0 secs

     total energy              =     -17.30081789 Ry
     estimated scf accuracy    <       0.00001102 Ry

     iteration #  9     ecut=    60.00 Ry     beta= 0.70
     Davidson diagonalization with overlap
     ethr =  1.38E-07,  avg # of iterations =  1.3

     total cpu time spent up to now is        5.4 secs

     total energy              =     -17.30081695 Ry
     estimated scf accuracy    <       0.00000457 Ry

     iteration # 10     ecut=    60.00 Ry     beta= 0.70
     Davidson diagonalization with overlap
     ethr =  5.71E-08,  avg # of iterations =  2.8

     total cpu time spent up to now is        5.8 secs

     total energy              =     -17.30081739 Ry
     estimated scf accuracy    <       0.00000102 Ry

     iteration # 11     ecut=    60.00 Ry     beta= 0.70
     Davidson diagonalization with overlap
     ethr =  1.27E-08,  avg # of iterations =  4.1

     total cpu time spent up to now is        6.4 secs

     total energy              =     -17.30081783 Ry
     estimated scf accuracy    <       0.00000014 Ry

     iteration # 12     ecut=    60.00 Ry     beta= 0.70
     Davidson diagonalization with overlap
     ethr =  1.75E-09,  avg # of iterations =  3.8

     total cpu time spent up to now is        6.9 secs

     total energy              =     -17.30081820 Ry
     estimated scf accuracy    <       0.00000013 Ry

     iteration # 13     ecut=    60.00 Ry     beta= 0.70
     Davidson diagonalization with overlap
     ethr =  1.58E-09,  avg # of iterations =  4.9

     total cpu time spent up to now is        7.6 secs

     total energy              =     -17.30081810 Ry
     estimated scf accuracy    <       0.00000143 Ry

     iteration # 14     ecut=    60.00 Ry     beta= 0.70
     Davidson diagonalization with overlap
     ethr =  1.58E-09,  avg # of iterations =  2.0

     total cpu time spent up to now is        8.0 secs

     total energy              =     -17.30081774 Ry
     estimated scf accuracy    <       0.00000087 Ry

     iteration # 15     ecut=    60.00 Ry     beta= 0.70
     Davidson diagonalization with overlap
     ethr =  1.58E-09,  avg # of iterations =  4.0

     total cpu time spent up to now is        8.7 secs

     total energy              =     -17.30081803 Ry
     estimated scf accuracy    <       0.00000004 Ry

     iteration # 16     ecut=    60.00 Ry     beta= 0.70
     Davidson diagonalization with overlap
     ethr =  5.57E-10,  avg # of iterations =  5.0

     total cpu time spent up to now is        9.4 secs

     total energy              =     -17.30081769 Ry
     estimated scf accuracy    <       0.00000071 Ry

     iteration # 17     ecut=    60.00 Ry     beta= 0.70
     Davidson diagonalization with overlap
     ethr =  5.57E-10,  avg # of iterations =  6.0

     total cpu time spent up to now is       10.3 secs

     total energy              =     -17.30081786 Ry
     estimated scf accuracy    <       0.00000002 Ry

     iteration # 18     ecut=    60.00 Ry     beta= 0.70
     Davidson diagonalization with overlap
     ethr =  2.58E-10,  avg # of iterations =  1.3

     total cpu time spent up to now is       10.6 secs

     total energy              =     -17.30081786 Ry
     estimated scf accuracy    <       0.00000002 Ry

     iteration # 19     ecut=    60.00 Ry     beta= 0.70
     Davidson diagonalization with overlap
     ethr =  2.58E-10,  avg # of iterations =  1.1

     total cpu time spent up to now is       11.0 secs

     total energy              =     -17.30081785 Ry
     estimated scf accuracy    <       0.00000003 Ry

     iteration # 20     ecut=    60.00 Ry     beta= 0.70
     Davidson diagonalization with overlap
     ethr =  2.58E-10,  avg # of iterations =  1.2

     total cpu time spent up to now is       11.4 secs

     End of self-consistent calculation

          k = 0.0000 0.0000 0.0000 (  2733 PWs)   bands (ev):

    -8.3462   2.8925   3.2411   3.2411

          k =-0.1250 0.1250-0.1250 (  2755 PWs)   bands (ev):

    -8.2195   1.1686   3.0646   3.0646

          k =-0.2500 0.2500-0.2500 (  2776 PWs)   bands (ev):

    -7.8678  -0.6559   2.7219   2.7219

          k =-0.3750 0.3750-0.3750 (  2782 PWs)   bands (ev):

    -7.4140  -2.0619   2.4510   2.4510

          k = 0.5000-0.5000 0.5000 (  2788 PWs)   bands (ev):

    -7.1735  -2.6297   2.3527   2.3527

          k = 0.0000 0.2500 0.0000 (  2750 PWs)   bands (ev):

    -8.1768   1.0473   2.7425   2.7425

          k =-0.1250 0.3750-0.1250 (  2771 PWs)   bands (ev):

    -7.8974  -0.3074   2.3005   2.3545

          k =-0.2500 0.5000-0.2500 (  2759 PWs)   bands (ev):

    -7.4640  -1.7075   1.7741   2.1184

          k = 0.6250-0.3750 0.6250 (  2771 PWs)   bands (ev):

    -7.1183  -2.5340   1.4039   2.1091

          k = 0.5000-0.2500 0.5000 (  2776 PWs)   bands (ev):

    -7.2026  -2.3470   1.3035   2.3217

          k = 0.3750-0.1250 0.3750 (  2772 PWs)   bands (ev):

    -7.6190  -1.2754   1.5340   2.6860

          k = 0.2500 0.0000 0.2500 (  2764 PWs)   bands (ev):

    -8.0163   0.1201   2.1806   3.0282

          k = 0.0000 0.5000 0.0000 (  2786 PWs)   bands (ev):

    -7.6991  -0.7727   1.9165   1.9165

          k =-0.1250 0.6250-0.1250 (  2767 PWs)   bands (ev):

    -7.3295  -1.7122   1.3031   1.6470

          k = 0.7500-0.2500 0.7500 (  2783 PWs)   bands (ev):

    -6.9658  -2.4501   0.5935   1.6318

          k = 0.6250-0.1250 0.6250 (  2767 PWs)   bands (ev):

    -6.9152  -2.5302   0.2474   1.8719

          k = 0.5000 0.0000 0.5000 (  2754 PWs)   bands (ev):

    -7.2307  -1.9718   0.5070   2.2918

          k = 0.0000 0.7500 0.0000 (  2782 PWs)   bands (ev):

    -7.0532  -2.2345   1.3201   1.3201

          k = 0.8750-0.1250 0.8750 (  2778 PWs)   bands (ev):

    -6.7766  -2.6903   0.7434   1.2497

          k = 0.7500 0.0000 0.7500 (  2784 PWs)   bands (ev):

    -6.7151  -2.7314   0.1174   1.4531

          k = 0.0000-1.0000 0.0000 (  2778 PWs)   bands (ev):

    -6.6829  -2.8796   1.1099   1.1099

          k =-0.2500 0.5000 0.0000 (  2766 PWs)   bands (ev):

    -7.5701  -1.2143   1.3245   2.2183

          k = 0.6250-0.3750 0.8750 (  2768 PWs)   bands (ev):

    -7.1566  -2.1506   0.7408   1.8756

          k = 0.5000-0.2500 0.7500 (  2774 PWs)   bands (ev):

    -6.9430  -2.5737   0.5678   1.7176

          k = 0.7500-0.2500 1.0000 (  2774 PWs)   bands (ev):

    -6.9879  -2.3230   0.7895   1.2774

          k = 0.6250-0.1250 0.8750 (  2764 PWs)   bands (ev):

    -6.7546  -2.6601   0.2678   1.1322

          k = 0.5000 0.0000 0.7500 (  2754 PWs)   bands (ev):

    -6.8407  -2.5341   0.1475   1.4093

          k =-0.2500-1.0000 0.0000 (  2772 PWs)   bands (ev):

    -6.6714  -2.8111   0.7027   0.8204

          k =-0.5000-1.0000 0.0000 (  2740 PWs)   bands (ev):

    -6.6598  -2.7352   0.3632   0.5856

     highest occupied level (ev):     3.2411

!    total energy              =     -17.30081785 Ry
     estimated scf accuracy    <          8.4E-09 Ry

     The total energy is the sum of the following terms:
     one-electron contribution =       1.62796773 Ry
     hartree contribution      =       1.75179596 Ry
     xc contribution           =      -4.63862804 Ry
     ewald contribution        =     -16.04195350 Ry

     convergence has been achieved in  20 iterations

     Forces acting on atoms (cartesian axes, Ry/au):

     atom    1 type  1   force =     0.00000000    0.00000000    0.00000000
     atom    2 type  2   force =     0.00000000    0.00000000   -0.00000000
     The non-local contrib.  to forces
     atom    1 type  1   force =     0.00000000   -0.00000000    0.00000000
     atom    2 type  2   force =     0.00000000    0.00000000   -0.00000000
     The ionic contribution  to forces
     atom    1 type  1   force =    -0.00000000   -0.00000000   -0.00000000
     atom    2 type  2   force =    -0.00000000   -0.00000000   -0.00000000
     The local contribution  to forces
     atom    1 type  1   force =    -0.00000000    0.00000000    0.00000000
     atom    2 type  2   force =     0.00000000    0.00000000    0.00000000
     The core correction contribution to forces
     atom    1 type  1   force =     0.00000000    0.00000000    0.00000000
     atom    2 type  2   force =     0.00000000    0.00000000    0.00000000
     The Hubbard contrib.    to forces
     atom    1 type  1   force =     0.00000000    0.00000000    0.00000000
     atom    2 type  2   force =     0.00000000    0.00000000    0.00000000
     The SCF correction term to forces
     atom    1 type  1   force =    -0.00000000   -0.00000000    0.00000000
     atom    2 type  2   force =    -0.00000000   -0.00000000    0.00000000

     Total force =     0.000000     Total SCF correction =     0.000000


     Computing stress (Cartesian axis) and pressure

          total   stress  (Ry/bohr**3)                   (kbar)     P=      -96.35
  -0.00065499   0.00000000   0.00000000          -96.35        0.00        0.00
   0.00000000  -0.00065499  -0.00000000            0.00      -96.35       -0.00
   0.00000000  -0.00000000  -0.00065499            0.00       -0.00      -96.35


     BFGS Geometry Optimization
     Energy error            =      0.0E+00 Ry
     Gradient error          =      1.3E-34 Ry/Bohr
     Cell gradient error     =      9.6E+01 kbar

     number of scf cycles    =   1
     number of bfgs steps    =   0

     enthalpy           new  =     -17.3008178471 Ry

     new trust radius        =       0.0615165724 bohr
     new conv_thr            =       0.0000000100 Ry

     new unit-cell volume =    335.78785 a.u.^3 (    49.75863 Ang^3 )
     density =      4.82708 g/cm^3

CELL_PARAMETERS (alat= 11.21704970)
  -0.491812635  -0.000000000   0.491812635
   0.000000000   0.491812635   0.491812635
  -0.491812635   0.491812635  -0.000000000

ATOMIC_POSITIONS (alat)
Ga            0.0000000000        0.0000000000        0.0000000000
As            0.2459063174        0.2459063174        0.2459063174



     Writing config-only to output data dir /home/paolo/project_labqsm/Silicon/SCRATCH/gallium_arsenide.save/
     NEW-OLD atomic charge density approx. for the potential
     extrapolated charge    7.59388, renormalised to    8.00000

     total cpu time spent up to now is       12.7 secs

     Self-consistent Calculation

     iteration #  1     ecut=    60.00 Ry     beta= 0.70
     Davidson diagonalization with overlap
     ethr =  1.00E-06,  avg # of iterations =  9.6

     total cpu time spent up to now is       14.0 secs

     total energy              =     -17.30597871 Ry
     estimated scf accuracy    <       0.00343760 Ry

     iteration #  2     ecut=    60.00 Ry     beta= 0.70
     Davidson diagonalization with overlap
     ethr =  4.30E-05,  avg # of iterations =  4.0

     total cpu time spent up to now is       14.6 secs

     total energy              =     -17.31137300 Ry
     estimated scf accuracy    <       0.00532589 Ry

     iteration #  3     ecut=    60.00 Ry     beta= 0.70
     Davidson diagonalization with overlap
     ethr =  4.30E-05,  avg # of iterations =  1.1

     total cpu time spent up to now is       15.0 secs

     total energy              =     -17.31040791 Ry
     estimated scf accuracy    <       0.00165422 Ry

     iteration #  4     ecut=    60.00 Ry     beta= 0.70
     Davidson diagonalization with overlap
     ethr =  2.07E-05,  avg # of iterations =  2.9

     total cpu time spent up to now is       15.5 secs

     total energy              =     -17.31142562 Ry
     estimated scf accuracy    <       0.00072954 Ry

     iteration #  5     ecut=    60.00 Ry     beta= 0.70
     Davidson diagonalization with overlap
     ethr =  9.12E-06,  avg # of iterations =  1.2

     total cpu time spent up to now is       15.9 secs

     total energy              =     -17.31171350 Ry
     estimated scf accuracy    <       0.00066676 Ry

     iteration #  6     ecut=    60.00 Ry     beta= 0.70
     Davidson diagonalization with overlap
     ethr =  8.33E-06,  avg # of iterations =  1.7

     total cpu time spent up to now is       16.3 secs

     total energy              =     -17.31143977 Ry
     estimated scf accuracy    <       0.00148817 Ry

     iteration #  7     ecut=    60.00 Ry     beta= 0.70
     Davidson diagonalization with overlap
     ethr =  8.33E-06,  avg # of iterations =  1.0

     total cpu time spent up to now is       16.7 secs

     total energy              =     -17.31081454 Ry
     estimated scf accuracy    <       0.00087545 Ry

     iteration #  8     ecut=    60.00 Ry     beta= 0.70
     Davidson diagonalization with overlap
     ethr =  8.33E-06,  avg # of iterations =  4.1

     total cpu time spent up to now is       17.3 secs

     total energy              =     -17.31156846 Ry
     estimated scf accuracy    <       0.00108067 Ry

     iteration #  9     ecut=    60.00 Ry     beta= 0.70
     Davidson diagonalization with overlap
     ethr =  8.33E-06,  avg # of iterations =  1.0

     total cpu time spent up to now is       17.7 secs

     total energy              =     -17.31167935 Ry
     estimated scf accuracy    <       0.00104622 Ry

     iteration # 10     ecut=    60.00 Ry     beta= 0.70
     Davidson diagonalization with overlap
     ethr =  8.33E-06,  avg # of iterations =  1.0

     total cpu time spent up to now is       18.0 secs

     total energy              =     -17.31154907 Ry
     estimated scf accuracy    <       0.00131824 Ry

     iteration # 11     ecut=    60.00 Ry     beta= 0.70
     Davidson diagonalization with overlap
     ethr =  8.33E-06,  avg # of iterations =  1.0

     total cpu time spent up to now is       18.4 secs

     total energy              =     -17.31140931 Ry
     estimated scf accuracy    <       0.00106499 Ry

     iteration # 12     ecut=    60.00 Ry     beta= 0.70
     Davidson diagonalization with overlap
     ethr =  8.33E-06,  avg # of iterations =  1.0

     total cpu time spent up to now is       18.7 secs

     total energy              =     -17.31109771 Ry
     estimated scf accuracy    <       0.00070185 Ry

     iteration # 13     ecut=    60.00 Ry     beta= 0.70
     Davidson diagonalization with overlap
     ethr =  8.33E-06,  avg # of iterations =  2.0

     total cpu time spent up to now is       19.2 secs

     total energy              =     -17.31115822 Ry
     estimated scf accuracy    <       0.00004896 Ry

     iteration # 14     ecut=    60.00 Ry     beta= 0.70
     Davidson diagonalization with overlap
     ethr =  6.12E-07,  avg # of iterations =  3.9

     total cpu time spent up to now is       19.8 secs

     total energy              =     -17.31118483 Ry
     estimated scf accuracy    <       0.00000004 Ry

     iteration # 15     ecut=    60.00 Ry     beta= 0.70
     Davidson diagonalization with overlap
     c_bands:  1 eigenvalues not converged
     ethr =  4.93E-10,  avg # of iterations = 12.3

     total cpu time spent up to now is       21.2 secs

     total energy              =     -17.31118762 Ry
     estimated scf accuracy    <       0.00000315 Ry

     iteration # 16     ecut=    60.00 Ry     beta= 0.70
     Davidson diagonalization with overlap
     ethr =  4.93E-10,  avg # of iterations =  5.1

     total cpu time spent up to now is       22.0 secs

     total energy              =     -17.31118730 Ry
     estimated scf accuracy    <       0.00000154 Ry

     iteration # 17     ecut=    60.00 Ry     beta= 0.70
     Davidson diagonalization with overlap
     ethr =  4.93E-10,  avg # of iterations =  4.8

     total cpu time spent up to now is       22.6 secs

     total energy              =     -17.31118714 Ry
     estimated scf accuracy    <       0.00000060 Ry

     iteration # 18     ecut=    60.00 Ry     beta= 0.70
     Davidson diagonalization with overlap
     ethr =  4.93E-10,  avg # of iterations =  5.1

     total cpu time spent up to now is       23.3 secs

     total energy              =     -17.31118717 Ry
     estimated scf accuracy    <       0.00000012 Ry

     iteration # 19     ecut=    60.00 Ry     beta= 0.70
     Davidson diagonalization with overlap
     ethr =  4.93E-10,  avg # of iterations =  2.2

     total cpu time spent up to now is       23.8 secs

     total energy              =     -17.31118726 Ry
     estimated scf accuracy    <       0.00000003 Ry

     iteration # 20     ecut=    60.00 Ry     beta= 0.70
     Davidson diagonalization with overlap
     ethr =  4.31E-10,  avg # of iterations =  4.9

     total cpu time spent up to now is       24.5 secs

     total energy              =     -17.31118727 Ry
     estimated scf accuracy    <       0.00000040 Ry

     iteration # 21     ecut=    60.00 Ry     beta= 0.70
     Davidson diagonalization with overlap
     ethr =  4.31E-10,  avg # of iterations =  1.0

     total cpu time spent up to now is       24.9 secs

     total energy              =     -17.31118710 Ry
     estimated scf accuracy    <       0.00000032 Ry

     iteration # 22     ecut=    60.00 Ry     beta= 0.70
     Davidson diagonalization with overlap
     ethr =  4.31E-10,  avg # of iterations =  5.0

     total cpu time spent up to now is       25.6 secs

     End of self-consistent calculation

          k = 0.0000 0.0000 0.0000 (  2733 PWs)   bands (ev):

    -8.1831   3.6739   3.6739   3.7117

          k =-0.1271 0.1271-0.1271 (  2755 PWs)   bands (ev):

    -8.0479   1.6730   3.4840   3.4840

          k =-0.2542 0.2542-0.2542 (  2776 PWs)   bands (ev):

    -7.6700  -0.2795   3.1191   3.1191

          k =-0.3812 0.3812-0.3812 (  2782 PWs)   bands (ev):

    -7.1750  -1.7886   2.8329   2.8329

          k = 0.5083-0.5083 0.5083 (  2788 PWs)   bands (ev):

    -6.9072  -2.4043   2.7295   2.7295

          k = 0.0000 0.2542 0.0000 (  2750 PWs)   bands (ev):

    -8.0022   1.5755   3.1360   3.1360

          k =-0.1271 0.3812-0.1271 (  2771 PWs)   bands (ev):

    -7.7023   0.1180   2.6772   2.7231

          k =-0.2542 0.5083-0.2542 (  2759 PWs)   bands (ev):

    -7.2315  -1.3921   2.1304   2.4749

          k = 0.6354-0.3812 0.6354 (  2771 PWs)   bands (ev):

    -6.8480  -2.2907   1.7423   2.4677

          k = 0.5083-0.2542 0.5083 (  2776 PWs)   bands (ev):

    -6.9423  -2.0867   1.6305   2.6951

          k = 0.3812-0.1271 0.3812 (  2772 PWs)   bands (ev):

    -7.4007  -0.9259   1.8601   3.0835

          k = 0.2542 0.0000 0.2542 (  2764 PWs)   bands (ev):

    -7.8302   0.5695   2.5343   3.4486

          k = 0.0000 0.5083 0.0000 (  2786 PWs)   bands (ev):

    -7.4890  -0.3535   2.2573   2.2573

          k =-0.1271 0.6354-0.1271 (  2767 PWs)   bands (ev):

    -7.0866  -1.3641   1.6084   1.9731

          k = 0.7625-0.2542 0.7625 (  2783 PWs)   bands (ev):

    -6.6823  -2.1705   0.8596   1.9587

          k = 0.6354-0.1271 0.6354 (  2767 PWs)   bands (ev):

    -6.6244  -2.2605   0.4903   2.2146

          k = 0.5083 0.0000 0.5083 (  2754 PWs)   bands (ev):

    -6.9759  -1.6533   0.7599   2.6620

          k = 0.0000 0.7625 0.0000 (  2782 PWs)   bands (ev):

    -6.7831  -1.9221   1.6274   1.6274

          k = 0.8896-0.1271 0.8896 (  2778 PWs)   bands (ev):

    -6.4726  -2.4205   1.0096   1.5537

          k = 0.7625 0.0000 0.7625 (  2784 PWs)   bands (ev):

    -6.4010  -2.4669   0.3392   1.7696

          k = 0.0000-1.0166 0.0000 (  2778 PWs)   bands (ev):

    -6.3667  -2.6299   1.4060   1.4060

          k =-0.2542 0.5083 0.0000 (  2766 PWs)   bands (ev):

    -7.3484  -0.8386   1.6269   2.5841

          k = 0.6354-0.3812 0.8896 (  2768 PWs)   bands (ev):

    -6.8941  -1.8507   1.0181   2.2158

          k = 0.5083-0.2542 0.7625 (  2774 PWs)   bands (ev):

    -6.6547  -2.3162   0.8427   2.0458

          k = 0.7625-0.2542 1.0166 (  2774 PWs)   bands (ev):

    -6.7091  -2.0199   1.0604   1.5760

          k = 0.6354-0.1271 0.8896 (  2764 PWs)   bands (ev):

    -6.4458  -2.3889   0.5029   1.4205

          k = 0.5083-0.0000 0.7625 (  2754 PWs)   bands (ev):

    -6.5423  -2.2526   0.3744   1.7164

          k =-0.2542-1.0166 0.0000 (  2772 PWs)   bands (ev):

    -6.3527  -2.5529   0.9677   1.0885

          k =-0.5083-1.0166 0.0000 (  2740 PWs)   bands (ev):

    -6.3386  -2.4667   0.6018   0.8333

     highest occupied level (ev):     3.7117

!    total energy              =     -17.31118717 Ry
     estimated scf accuracy    <          5.4E-09 Ry

     The total energy is the sum of the following terms:
     one-electron contribution =       1.99297170 Ry
     hartree contribution      =       1.68537766 Ry
     xc contribution           =      -4.68052739 Ry
     ewald contribution        =     -16.30900913 Ry

     convergence has been achieved in  22 iterations

     Forces acting on atoms (cartesian axes, Ry/au):

     atom    1 type  1   force =     0.00000000    0.00000000    0.00000000
     atom    2 type  2   force =     0.00000000   -0.00000000    0.00000000
     The non-local contrib.  to forces
     atom    1 type  1   force =     0.00000000    0.00000000    0.00000000
     atom    2 type  2   force =     0.00000000   -0.00000000    0.00000000
     The ionic contribution  to forces
     atom    1 type  1   force =    -0.00000000   -0.00000000    0.00000000
     atom    2 type  2   force =     0.00000000   -0.00000000   -0.00000000
     The local contribution  to forces
     atom    1 type  1   force =    -0.00000000    0.00000000    0.00000000
     atom    2 type  2   force =     0.00000000    0.00000000    0.00000000
     The core correction contribution to forces
     atom    1 type  1   force =     0.00000000    0.00000000    0.00000000
     atom    2 type  2   force =     0.00000000    0.00000000    0.00000000
     The Hubbard contrib.    to forces
     atom    1 type  1   force =     0.00000000    0.00000000    0.00000000
     atom    2 type  2   force =     0.00000000    0.00000000    0.00000000
     The SCF correction term to forces
     atom    1 type  1   force =    -0.00000000    0.00000000   -0.00000000
     atom    2 type  2   force =    -0.00000000   -0.00000000   -0.00000000

     Total force =     0.000000     Total SCF correction =     0.000000


     Computing stress (Cartesian axis) and pressure

          total   stress  (Ry/bohr**3)                   (kbar)     P=      -81.67
  -0.00055515  -0.00000000   0.00000000          -81.67       -0.00        0.00
  -0.00000000  -0.00055515   0.00000000           -0.00      -81.67        0.00
   0.00000000   0.00000000  -0.00055515            0.00        0.00      -81.67

     Energy error            =      1.0E-02 Ry
     Gradient error          =      3.3E-32 Ry/Bohr
     Cell gradient error     =      8.2E+01 kbar

     number of scf cycles    =   2
     number of bfgs steps    =   1

     enthalpy           old  =     -17.3008178471 Ry
     enthalpy           new  =     -17.3111871662 Ry

     CASE: enthalpy          _new < enthalpy          _old


     WARNING: bfgs curvature condition failed, Theta= 0.976
     new trust radius        =       0.0915162523 bohr
     new conv_thr            =            1.0E-10 Ry

     new unit-cell volume =    311.25590 a.u.^3 (    46.12337 Ang^3 )
     density =      5.20753 g/cm^3

CELL_PARAMETERS (alat= 11.21704970)
  -0.479531587   0.000000000   0.479531587
   0.000000000   0.479531587   0.479531587
  -0.479531587   0.479531587  -0.000000000

ATOMIC_POSITIONS (alat)
Ga            0.0000000000        0.0000000000        0.0000000000
As            0.2397657934        0.2397657934        0.2397657934



     Writing config-only to output data dir /home/paolo/project_labqsm/Silicon/SCRATCH/gallium_arsenide.save/
     NEW-OLD atomic charge density approx. for the potential
     extrapolated charge    7.36963, renormalised to    8.00000

     total cpu time spent up to now is       26.9 secs

     Self-consistent Calculation

     iteration #  1     ecut=    60.00 Ry     beta= 0.70
     Davidson diagonalization with overlap
     ethr =  1.00E-06,  avg # of iterations = 10.4

     total cpu time spent up to now is       28.3 secs

     total energy              =     -17.31094981 Ry
     estimated scf accuracy    <       0.00760338 Ry

     iteration #  2     ecut=    60.00 Ry     beta= 0.70
     Davidson diagonalization with overlap
     ethr =  9.50E-05,  avg # of iterations =  4.0

     total cpu time spent up to now is       28.9 secs

     total energy              =     -17.32265573 Ry
     estimated scf accuracy    <       0.01057743 Ry

     iteration #  3     ecut=    60.00 Ry     beta= 0.70
     Davidson diagonalization with overlap
     ethr =  9.50E-05,  avg # of iterations =  1.1

     total cpu time spent up to now is       29.3 secs

     total energy              =     -17.32084494 Ry
     estimated scf accuracy    <       0.00318960 Ry

     iteration #  4     ecut=    60.00 Ry     beta= 0.70
     Davidson diagonalization with overlap
     ethr =  3.99E-05,  avg # of iterations =  2.8

     total cpu time spent up to now is       29.8 secs

     total energy              =     -17.32276273 Ry
     estimated scf accuracy    <       0.00107638 Ry

     iteration #  5     ecut=    60.00 Ry     beta= 0.70
     Davidson diagonalization with overlap
     ethr =  1.35E-05,  avg # of iterations =  2.0

     total cpu time spent up to now is       30.2 secs

     total energy              =     -17.32301734 Ry
     estimated scf accuracy    <       0.00139305 Ry

     iteration #  6     ecut=    60.00 Ry     beta= 0.70
     Davidson diagonalization with overlap
     ethr =  1.35E-05,  avg # of iterations =  1.0

     total cpu time spent up to now is       30.6 secs

     total energy              =     -17.32295167 Ry
     estimated scf accuracy    <       0.00191349 Ry

     iteration #  7     ecut=    60.00 Ry     beta= 0.70
     Davidson diagonalization with overlap
     ethr =  1.35E-05,  avg # of iterations =  1.0

     total cpu time spent up to now is       30.9 secs

     total energy              =     -17.32298071 Ry
     estimated scf accuracy    <       0.00180122 Ry

     iteration #  8     ecut=    60.00 Ry     beta= 0.70
     Davidson diagonalization with overlap
     ethr =  1.35E-05,  avg # of iterations =  1.0

     total cpu time spent up to now is       31.3 secs

     total energy              =     -17.32307220 Ry
     estimated scf accuracy    <       0.00187208 Ry

     iteration #  9     ecut=    60.00 Ry     beta= 0.70
     Davidson diagonalization with overlap
     ethr =  1.35E-05,  avg # of iterations =  1.0

     total cpu time spent up to now is       31.6 secs

     total energy              =     -17.32315836 Ry
     estimated scf accuracy    <       0.00209726 Ry

     iteration # 10     ecut=    60.00 Ry     beta= 0.70
     Davidson diagonalization with overlap
     ethr =  1.35E-05,  avg # of iterations =  1.0

     total cpu time spent up to now is       32.0 secs

     total energy              =     -17.32320052 Ry
     estimated scf accuracy    <       0.00231772 Ry

     iteration # 11     ecut=    60.00 Ry     beta= 0.70
     Davidson diagonalization with overlap
     ethr =  1.35E-05,  avg # of iterations =  1.0

     total cpu time spent up to now is       32.4 secs

     total energy              =     -17.32325829 Ry
     estimated scf accuracy    <       0.00242901 Ry

     iteration # 12     ecut=    60.00 Ry     beta= 0.70
     Davidson diagonalization with overlap
     ethr =  1.35E-05,  avg # of iterations =  1.0

     total cpu time spent up to now is       32.7 secs

     total energy              =     -17.32338324 Ry
     estimated scf accuracy    <       0.00259851 Ry

     iteration # 13     ecut=    60.00 Ry     beta= 0.70
     Davidson diagonalization with overlap
     ethr =  1.35E-05,  avg # of iterations =  1.0

     total cpu time spent up to now is       33.1 secs

     total energy              =     -17.32185836 Ry
     estimated scf accuracy    <       0.00291417 Ry

     iteration # 14     ecut=    60.00 Ry     beta= 0.70
     Davidson diagonalization with overlap
     ethr =  1.35E-05,  avg # of iterations =  2.0

     total cpu time spent up to now is       33.6 secs

     total energy              =     -17.32219335 Ry
     estimated scf accuracy    <       0.00011400 Ry

     iteration # 15     ecut=    60.00 Ry     beta= 0.70
     Davidson diagonalization with overlap
     ethr =  1.43E-06,  avg # of iterations =  4.9

     total cpu time spent up to now is       34.3 secs

     total energy              =     -17.32228291 Ry
     estimated scf accuracy    <       0.00000137 Ry

     iteration # 16     ecut=    60.00 Ry     beta= 0.70
     Davidson diagonalization with overlap
     c_bands:  1 eigenvalues not converged
     ethr =  1.71E-08,  avg # of iterations =  6.4

     total cpu time spent up to now is       35.1 secs

     total energy              =     -17.32247835 Ry
     estimated scf accuracy    <       0.00001469 Ry

     iteration # 17     ecut=    60.00 Ry     beta= 0.70
     Davidson diagonalization with overlap
     ethr =  1.71E-08,  avg # of iterations =  2.8

     total cpu time spent up to now is       35.6 secs

     total energy              =     -17.32247686 Ry
     estimated scf accuracy    <       0.00000483 Ry

     iteration # 18     ecut=    60.00 Ry     beta= 0.70
     Davidson diagonalization with overlap
     ethr =  1.71E-08,  avg # of iterations =  4.0

     total cpu time spent up to now is       36.3 secs

     total energy              =     -17.32247747 Ry
     estimated scf accuracy    <       0.00000032 Ry

     iteration # 19     ecut=    60.00 Ry     beta= 0.70
     Davidson diagonalization with overlap
     ethr =  3.97E-09,  avg # of iterations =  3.6

     total cpu time spent up to now is       36.8 secs

     total energy              =     -17.32247761 Ry
     estimated scf accuracy    <          5.6E-09 Ry

     iteration # 20     ecut=    60.00 Ry     beta= 0.70
     Davidson diagonalization with overlap
     c_bands:  1 eigenvalues not converged
     ethr =  6.95E-11,  avg # of iterations =  8.4

     total cpu time spent up to now is       37.9 secs

     total energy              =     -17.32247771 Ry
     estimated scf accuracy    <       0.00000010 Ry

     iteration # 21     ecut=    60.00 Ry     beta= 0.70
     Davidson diagonalization with overlap
     ethr =  6.95E-11,  avg # of iterations =  6.1

     total cpu time spent up to now is       38.7 secs

     total energy              =     -17.32247771 Ry
     estimated scf accuracy    <       0.00000032 Ry

     iteration # 22     ecut=    60.00 Ry     beta= 0.70
     Davidson diagonalization with overlap
     ethr =  6.95E-11,  avg # of iterations =  1.0

     total cpu time spent up to now is       39.1 secs

     total energy              =     -17.32247766 Ry
     estimated scf accuracy    <       0.00000028 Ry

     iteration # 23     ecut=    60.00 Ry     beta= 0.70
     Davidson diagonalization with overlap
     ethr =  6.95E-11,  avg # of iterations =  2.4

     total cpu time spent up to now is       39.6 secs

     total energy              =     -17.32247759 Ry
     estimated scf accuracy    <       0.00000016 Ry

     iteration # 24     ecut=    60.00 Ry     beta= 0.70
     Davidson diagonalization with overlap
     ethr =  6.95E-11,  avg # of iterations =  6.3

     total cpu time spent up to now is       40.5 secs

     total energy              =     -17.32247761 Ry
     estimated scf accuracy    <          8.4E-09 Ry

     iteration # 25     ecut=    60.00 Ry     beta= 0.70
     Davidson diagonalization with overlap
     ethr =  6.95E-11,  avg # of iterations =  5.9

     total cpu time spent up to now is       41.3 secs

     total energy              =     -17.32247761 Ry
     estimated scf accuracy    <       0.00000004 Ry

     iteration # 26     ecut=    60.00 Ry     beta= 0.70
     Davidson diagonalization with overlap
     ethr =  6.95E-11,  avg # of iterations =  4.7

     total cpu time spent up to now is       41.9 secs

     End of self-consistent calculation

          k = 0.0000 0.0000 0.0000 (  2733 PWs)   bands (ev):

    -7.9256   4.3810   4.3810   4.3810

          k =-0.1303 0.1303-0.1303 (  2755 PWs)   bands (ev):

    -7.7771   2.4562   4.1690   4.1690

          k =-0.2607 0.2607-0.2607 (  2776 PWs)   bands (ev):

    -7.3582   0.3154   3.7678   3.7678

          k =-0.3910 0.3910-0.3910 (  2782 PWs)   bands (ev):

    -6.7966  -1.3551   3.4571   3.4571

          k = 0.5213-0.5213 0.5213 (  2788 PWs)   bands (ev):

    -6.4828  -2.0491   3.3454   3.3454

          k = 0.0000 0.2607 0.0000 (  2750 PWs)   bands (ev):

    -7.7271   2.4097   3.7774   3.7774

          k =-0.1303 0.3910-0.1303 (  2771 PWs)   bands (ev):

    -7.3952   0.7942   3.2953   3.3242

          k =-0.2607 0.5213-0.2607 (  2759 PWs)   bands (ev):

    -6.8643  -0.8900   2.7161   3.0568

          k = 0.6517-0.3910 0.6517 (  2771 PWs)   bands (ev):

    -6.4176  -1.9062   2.2987   3.0532

          k = 0.5213-0.2607 0.5213 (  2776 PWs)   bands (ev):

    -6.5289  -1.6738   2.1677   3.3052

          k = 0.3910-0.1303 0.3910 (  2772 PWs)   bands (ev):

    -7.0564  -0.3692   2.3945   3.7331

          k = 0.2607 0.0000 0.2607 (  2764 PWs)   bands (ev):

    -7.5368   1.2819   3.1106   4.1359

          k = 0.0000 0.5213 0.0000 (  2786 PWs)   bands (ev):

    -7.1582   0.3233   2.8130   2.8130

          k =-0.1303 0.6517-0.1303 (  2767 PWs)   bands (ev):

    -6.7034  -0.8008   2.1073   2.5051

          k = 0.7820-0.2607 0.7820 (  2783 PWs)   bands (ev):

    -6.2316  -1.7213   1.2961   2.4922

          k = 0.6517-0.1303 0.6517 (  2767 PWs)   bands (ev):

    -6.1606  -1.8284   0.8890   2.7740

          k = 0.5213 0.0000 0.5213 (  2754 PWs)   bands (ev):

    -6.5725  -1.1401   1.1730   3.2666

          k = 0.0000 0.7820 0.0000 (  2782 PWs)   bands (ev):

    -6.3559  -1.4141   2.1290   2.1290

          k = 0.9123-0.1303 0.9123 (  2778 PWs)   bands (ev):

    -5.9878  -1.9834   1.4432   2.0500

          k = 0.7820 0.0000 0.7820 (  2784 PWs)   bands (ev):

    -5.8978  -2.0396   0.6994   2.2862

          k = 0.0000-1.0427 0.0000 (  2778 PWs)   bands (ev):

    -5.8607  -2.2275   1.8893   1.8893

          k =-0.2607 0.5213 0.0000 (  2766 PWs)   bands (ev):

    -6.9989  -0.2343   2.1201   3.1820

          k = 0.6517-0.3910 0.9123 (  2768 PWs)   bands (ev):

    -6.4781  -1.3693   1.4738   2.7707

          k = 0.5213-0.2607 0.7820 (  2774 PWs)   bands (ev):

    -6.1946  -1.9065   1.2962   2.5806

          k = 0.7820-0.2607 1.0427 (  2774 PWs)   bands (ev):

    -6.2670  -1.5277   1.5024   2.0619

          k = 0.6517-0.1303 0.9123 (  2764 PWs)   bands (ev):

    -5.9518  -1.9505   0.8860   1.8897

          k = 0.5213 0.0000 0.7820 (  2754 PWs)   bands (ev):

    -6.0660  -1.7973   0.7441   2.2166

          k =-0.2607-1.0427 0.0000 (  2772 PWs)   bands (ev):

    -5.8421  -2.1360   1.3995   1.5246

          k =-0.5213-1.0427 0.0000 (  2740 PWs)   bands (ev):

    -5.8231  -2.0316   0.9896   1.2350

     highest occupied level (ev):     4.3810

!    total energy              =     -17.32247761 Ry
     estimated scf accuracy    <          6.9E-11 Ry

     The total energy is the sum of the following terms:
     one-electron contribution =       2.56525199 Ry
     hartree contribution      =       1.58673616 Ry
     xc contribution           =      -4.74777461 Ry
     ewald contribution        =     -16.72669115 Ry

     convergence has been achieved in  26 iterations

     Forces acting on atoms (cartesian axes, Ry/au):

     atom    1 type  1   force =    -0.00000000   -0.00000000    0.00000000
     atom    2 type  2   force =    -0.00000000    0.00000000   -0.00000000
     The non-local contrib.  to forces
     atom    1 type  1   force =     0.00000000   -0.00000000    0.00000000
     atom    2 type  2   force =     0.00000000   -0.00000000    0.00000000
     The ionic contribution  to forces
     atom    1 type  1   force =     0.00000000   -0.00000000   -0.00000000
     atom    2 type  2   force =    -0.00000000   -0.00000000   -0.00000000
     The local contribution  to forces
     atom    1 type  1   force =    -0.00000000   -0.00000000    0.00000000
     atom    2 type  2   force =     0.00000000    0.00000000    0.00000000
     The core correction contribution to forces
     atom    1 type  1   force =     0.00000000    0.00000000    0.00000000
     atom    2 type  2   force =     0.00000000    0.00000000    0.00000000
     The Hubbard contrib.    to forces
     atom    1 type  1   force =     0.00000000    0.00000000    0.00000000
     atom    2 type  2   force =     0.00000000    0.00000000    0.00000000
     The SCF correction term to forces
     atom    1 type  1   force =     0.00000000   -0.00000000   -0.00000000
     atom    2 type  2   force =     0.00000000   -0.00000000    0.00000000

     Total force =     0.000000     Total SCF correction =     0.000000


     Computing stress (Cartesian axis) and pressure

          total   stress  (Ry/bohr**3)                   (kbar)     P=      -49.93
  -0.00033939   0.00000000   0.00000000          -49.93        0.00        0.00
   0.00000000  -0.00033939  -0.00000000            0.00      -49.93       -0.00
   0.00000000  -0.00000000  -0.00033939            0.00       -0.00      -49.93

     Energy error            =      1.1E-02 Ry
     Gradient error          =      1.0E-31 Ry/Bohr
     Cell gradient error     =      5.0E+01 kbar

     number of scf cycles    =   3
     number of bfgs steps    =   2

     enthalpy           old  =     -17.3111871662 Ry
     enthalpy           new  =     -17.3224776123 Ry

     CASE: enthalpy          _new < enthalpy          _old

     new trust radius        =       0.1254049921 bohr
     new conv_thr            =            1.0E-10 Ry

     new unit-cell volume =    279.23464 a.u.^3 (    41.37830 Ang^3 )
     density =      5.80470 g/cm^3

CELL_PARAMETERS (alat= 11.21704970)
  -0.462488696   0.000000000   0.462488696
   0.000000000   0.462488696   0.462488696
  -0.462488696   0.462488696  -0.000000000

ATOMIC_POSITIONS (alat)
Ga           -0.0000000000       -0.0000000000        0.0000000000
As            0.2312443481        0.2312443481        0.2312443481



     Writing config-only to output data dir /home/paolo/project_labqsm/Silicon/SCRATCH/gallium_arsenide.save/
     NEW-OLD atomic charge density approx. for the potential
     extrapolated charge    7.08284, renormalised to    8.00000

     total cpu time spent up to now is       43.3 secs

     Self-consistent Calculation

     iteration #  1     ecut=    60.00 Ry     beta= 0.70
     Davidson diagonalization with overlap
     ethr =  1.00E-06,  avg # of iterations = 11.0

     total cpu time spent up to now is       44.7 secs

     total energy              =     -17.30561449 Ry
     estimated scf accuracy    <       0.01396776 Ry

     iteration #  2     ecut=    60.00 Ry     beta= 0.70
     Davidson diagonalization with overlap
     ethr =  1.75E-04,  avg # of iterations =  4.0

     total cpu time spent up to now is       45.3 secs

     total energy              =     -17.32661301 Ry
     estimated scf accuracy    <       0.01659041 Ry

     iteration #  3     ecut=    60.00 Ry     beta= 0.70
     Davidson diagonalization with overlap
     ethr =  1.75E-04,  avg # of iterations =  1.0

     total cpu time spent up to now is       45.7 secs

     total energy              =     -17.32399106 Ry
     estimated scf accuracy    <       0.00483652 Ry

     iteration #  4     ecut=    60.00 Ry     beta= 0.70
     Davidson diagonalization with overlap
     ethr =  6.05E-05,  avg # of iterations =  2.5

     total cpu time spent up to now is       46.2 secs

     total energy              =     -17.32665571 Ry
     estimated scf accuracy    <       0.00109346 Ry

     iteration #  5     ecut=    60.00 Ry     beta= 0.70
     Davidson diagonalization with overlap
     ethr =  1.37E-05,  avg # of iterations =  2.8

     total cpu time spent up to now is       46.6 secs

     total energy              =     -17.32664214 Ry
     estimated scf accuracy    <       0.00186461 Ry

     iteration #  6     ecut=    60.00 Ry     beta= 0.70
     Davidson diagonalization with overlap
     ethr =  1.37E-05,  avg # of iterations =  1.0

     total cpu time spent up to now is       47.0 secs

     total energy              =     -17.32630282 Ry
     estimated scf accuracy    <       0.00163282 Ry

     iteration #  7     ecut=    60.00 Ry     beta= 0.70
     Davidson diagonalization with overlap
     ethr =  1.37E-05,  avg # of iterations =  1.0

     total cpu time spent up to now is       47.4 secs

     total energy              =     -17.32621451 Ry
     estimated scf accuracy    <       0.00091681 Ry

     iteration #  8     ecut=    60.00 Ry     beta= 0.70
     Davidson diagonalization with overlap
     ethr =  1.15E-05,  avg # of iterations =  1.0

     total cpu time spent up to now is       47.7 secs

     total energy              =     -17.32616209 Ry
     estimated scf accuracy    <       0.00066654 Ry

     iteration #  9     ecut=    60.00 Ry     beta= 0.70
     Davidson diagonalization with overlap
     ethr =  8.33E-06,  avg # of iterations =  1.0

     total cpu time spent up to now is       48.1 secs

     total energy              =     -17.32617073 Ry
     estimated scf accuracy    <       0.00051703 Ry

     iteration # 10     ecut=    60.00 Ry     beta= 0.70
     Davidson diagonalization with overlap
     ethr =  6.46E-06,  avg # of iterations =  1.0

     total cpu time spent up to now is       48.4 secs

     total energy              =     -17.32618501 Ry
     estimated scf accuracy    <       0.00050213 Ry

     iteration # 11     ecut=    60.00 Ry     beta= 0.70
     Davidson diagonalization with overlap
     ethr =  6.28E-06,  avg # of iterations =  1.0

     total cpu time spent up to now is       48.8 secs

     total energy              =     -17.32598661 Ry
     estimated scf accuracy    <       0.00050472 Ry

     iteration # 12     ecut=    60.00 Ry     beta= 0.70
     Davidson diagonalization with overlap
     ethr =  6.28E-06,  avg # of iterations =  1.3

     total cpu time spent up to now is       49.2 secs

     total energy              =     -17.32596330 Ry
     estimated scf accuracy    <       0.00008675 Ry

     iteration # 13     ecut=    60.00 Ry     beta= 0.70
     Davidson diagonalization with overlap
     ethr =  1.08E-06,  avg # of iterations =  5.4

     total cpu time spent up to now is       49.9 secs

     total energy              =     -17.32602627 Ry
     estimated scf accuracy    <       0.00013546 Ry

     iteration # 14     ecut=    60.00 Ry     beta= 0.70
     Davidson diagonalization with overlap
     ethr =  1.08E-06,  avg # of iterations =  1.0

     total cpu time spent up to now is       50.2 secs

     total energy              =     -17.32601943 Ry
     estimated scf accuracy    <       0.00004257 Ry

     iteration # 15     ecut=    60.00 Ry     beta= 0.70
     Davidson diagonalization with overlap
     ethr =  5.32E-07,  avg # of iterations =  1.1

     total cpu time spent up to now is       50.6 secs

     total energy              =     -17.32602240 Ry
     estimated scf accuracy    <       0.00001825 Ry

     iteration # 16     ecut=    60.00 Ry     beta= 0.70
     Davidson diagonalization with overlap
     ethr =  2.28E-07,  avg # of iterations =  1.1

     total cpu time spent up to now is       51.0 secs

     total energy              =     -17.32601127 Ry
     estimated scf accuracy    <       0.00001726 Ry

     iteration # 17     ecut=    60.00 Ry     beta= 0.70
     Davidson diagonalization with overlap
     ethr =  2.16E-07,  avg # of iterations =  3.9

     total cpu time spent up to now is       51.6 secs

     total energy              =     -17.32602200 Ry
     estimated scf accuracy    <       0.00000680 Ry

     iteration # 18     ecut=    60.00 Ry     beta= 0.70
     Davidson diagonalization with overlap
     ethr =  8.49E-08,  avg # of iterations =  1.2

     total cpu time spent up to now is       51.9 secs

     total energy              =     -17.32602219 Ry
     estimated scf accuracy    <       0.00000575 Ry

     iteration # 19     ecut=    60.00 Ry     beta= 0.70
     Davidson diagonalization with overlap
     ethr =  7.19E-08,  avg # of iterations =  1.0

     total cpu time spent up to now is       52.3 secs

     total energy              =     -17.32601976 Ry
     estimated scf accuracy    <       0.00000555 Ry

     iteration # 20     ecut=    60.00 Ry     beta= 0.70
     Davidson diagonalization with overlap
     ethr =  6.93E-08,  avg # of iterations =  1.8

     total cpu time spent up to now is       52.7 secs

     total energy              =     -17.32602022 Ry
     estimated scf accuracy    <       0.00000069 Ry

     iteration # 21     ecut=    60.00 Ry     beta= 0.70
     Davidson diagonalization with overlap
     ethr =  8.61E-09,  avg # of iterations =  2.3

     total cpu time spent up to now is       53.1 secs

     total energy              =     -17.32601996 Ry
     estimated scf accuracy    <       0.00000058 Ry

     iteration # 22     ecut=    60.00 Ry     beta= 0.70
     Davidson diagonalization with overlap
     ethr =  7.27E-09,  avg # of iterations =  3.0

     total cpu time spent up to now is       53.7 secs

     total energy              =     -17.32602019 Ry
     estimated scf accuracy    <       0.00000005 Ry

     iteration # 23     ecut=    60.00 Ry     beta= 0.70
     Davidson diagonalization with overlap
     ethr =  5.81E-10,  avg # of iterations =  3.5

     total cpu time spent up to now is       54.3 secs

     total energy              =     -17.32602135 Ry
     estimated scf accuracy    <       0.00000001 Ry

     iteration # 24     ecut=    60.00 Ry     beta= 0.70
     Davidson diagonalization with overlap
     ethr =  1.44E-10,  avg # of iterations = 11.2

     total cpu time spent up to now is       55.8 secs

     total energy              =     -17.32602722 Ry
     estimated scf accuracy    <       0.00000567 Ry

     iteration # 25     ecut=    60.00 Ry     beta= 0.70
     Davidson diagonalization with overlap
     ethr =  1.44E-10,  avg # of iterations = 11.0

     total cpu time spent up to now is       57.2 secs

     total energy              =     -17.32601964 Ry
     estimated scf accuracy    <       0.00002137 Ry

     iteration # 26     ecut=    60.00 Ry     beta= 0.70
     Davidson diagonalization with overlap
     ethr =  1.44E-10,  avg # of iterations = 11.9

     total cpu time spent up to now is       58.8 secs

     total energy              =     -17.32602066 Ry
     estimated scf accuracy    <       0.00000270 Ry

     iteration # 27     ecut=    60.00 Ry     beta= 0.70
     Davidson diagonalization with overlap
     ethr =  1.44E-10,  avg # of iterations =  6.5

     total cpu time spent up to now is       59.7 secs

     total energy              =     -17.32601998 Ry
     estimated scf accuracy    <       0.00000131 Ry

     iteration # 28     ecut=    60.00 Ry     beta= 0.70
     Davidson diagonalization with overlap
     ethr =  1.44E-10,  avg # of iterations =  8.6

     total cpu time spent up to now is       60.9 secs

     total energy              =     -17.32602023 Ry
     estimated scf accuracy    <          3.7E-10 Ry

     iteration # 29     ecut=    60.00 Ry     beta= 0.70
     Davidson diagonalization with overlap
     ethr =  4.58E-12,  avg # of iterations =  5.7

     total cpu time spent up to now is       61.7 secs

     total energy              =     -17.32602023 Ry
     estimated scf accuracy    <          2.4E-09 Ry

     iteration # 30     ecut=    60.00 Ry     beta= 0.70
     Davidson diagonalization with overlap
     ethr =  4.58E-12,  avg # of iterations =  3.6

     total cpu time spent up to now is       62.3 secs

     total energy              =     -17.32602023 Ry
     estimated scf accuracy    <          2.3E-10 Ry

     iteration # 31     ecut=    60.00 Ry     beta= 0.70
     Davidson diagonalization with overlap
     ethr =  2.90E-12,  avg # of iterations =  2.9

     total cpu time spent up to now is       62.9 secs

     End of self-consistent calculation

          k = 0.0000 0.0000 0.0000 (  2733 PWs)   bands (ev):

    -7.5387   5.4922   5.4922   5.4922

          k =-0.1351 0.1351-0.1351 (  2755 PWs)   bands (ev):

    -7.3709   3.6100   5.2445   5.2445

          k =-0.2703 0.2703-0.2703 (  2776 PWs)   bands (ev):

    -6.8914   1.2116   4.7868   4.7868

          k =-0.4054 0.4054-0.4054 (  2782 PWs)   bands (ev):

    -6.2278  -0.6988   4.4387   4.4387

          k = 0.5406-0.5406 0.5406 (  2788 PWs)   bands (ev):

    -5.8382  -1.5162   4.3147   4.3147

          k = 0.0000 0.2703 0.0000 (  2750 PWs)   bands (ev):

    -7.3143   3.6634   4.7821   4.7821

          k =-0.1351 0.4054-0.1351 (  2771 PWs)   bands (ev):

    -6.9354   1.8175   4.2663   4.2734

          k =-0.2703 0.5406-0.2703 (  2759 PWs)   bands (ev):

    -6.3140  -0.1276   3.6447   3.9698

          k = 0.6757-0.4054 0.6757 (  2771 PWs)   bands (ev):

    -5.7651  -1.3272   3.1801   3.9731

          k = 0.5406-0.2703 0.5406 (  2776 PWs)   bands (ev):

    -5.9047  -1.0498   3.0179   4.2645

          k = 0.4054-0.1351 0.4054 (  2772 PWs)   bands (ev):

    -6.5409   0.4762   3.2379   4.7549

          k = 0.2703 0.0000 0.2703 (  2764 PWs)   bands (ev):

    -7.0974   2.3573   4.0126   5.2172

          k = 0.0000 0.5406 0.0000 (  2786 PWs)   bands (ev):

    -6.6639   1.3714   3.6839   3.6839

          k =-0.1351 0.6757-0.1351 (  2767 PWs)   bands (ev):

    -6.1301   0.0738   2.8922   3.3396

          k = 0.8108-0.2703 0.8108 (  2783 PWs)   bands (ev):

    -5.5500  -1.0304   1.9873   3.3295

          k = 0.6757-0.1351 0.6757 (  2767 PWs)   bands (ev):

    -5.4559  -1.1676   1.5208   3.6523

          k = 0.5406 0.0000 0.5406 (  2754 PWs)   bands (ev):

    -5.9664  -0.3472   1.8222   4.2165

          k = 0.0000 0.8108 0.0000 (  2782 PWs)   bands (ev):

    -5.7154  -0.6188   2.9161   2.9161

          k = 0.9460-0.1351 0.9460 (  2778 PWs)   bands (ev):

    -5.2528  -1.3021   2.1213   2.8291

          k = 0.8108 0.0000 0.8108 (  2784 PWs)   bands (ev):

    -5.1289  -1.3762   1.2600   3.0972

          k = 0.0000-1.0811 0.0000 (  2778 PWs)   bands (ev):

    -5.0893  -1.6045   2.6483   2.6483

          k =-0.2703 0.5406-0.0000 (  2766 PWs)   bands (ev):

    -6.4763   0.6961   2.8937   4.1224

          k = 0.6757-0.4054 0.9460 (  2768 PWs)   bands (ev):

    -5.8521  -0.6307   2.1963   3.6407

          k = 0.5406-0.2703 0.8108 (  2774 PWs)   bands (ev):

    -5.4953  -1.2859   2.0197   3.4175

          k = 0.8108-0.2703 1.0811 (  2774 PWs)   bands (ev):

    -5.6015  -0.7581   2.1959   2.8210

          k = 0.6757-0.1351 0.9460 (  2764 PWs)   bands (ev):

    -5.1988  -1.2698   1.4860   2.6226

          k = 0.5406 0.0000 0.8108 (  2754 PWs)   bands (ev):

    -5.3423  -1.0894   1.3226   2.9990

          k =-0.2703-1.0811 0.0000 (  2772 PWs)   bands (ev):

    -5.0618  -1.4890   2.0756   2.2055

          k =-0.5406-1.0811 0.0000 (  2740 PWs)   bands (ev):

    -5.0335  -1.3530   1.5934   1.8600

     highest occupied level (ev):     5.4922

!    total energy              =     -17.32602023 Ry
     estimated scf accuracy    <          4.4E-13 Ry

     The total energy is the sum of the following terms:
     one-electron contribution =       3.41699435 Ry
     hartree contribution      =       1.44961291 Ry
     xc contribution           =      -4.84955118 Ry
     ewald contribution        =     -17.34307631 Ry

     convergence has been achieved in  31 iterations

     Forces acting on atoms (cartesian axes, Ry/au):

     atom    1 type  1   force =     0.00000000    0.00000000    0.00000000
     atom    2 type  2   force =    -0.00000000    0.00000000   -0.00000000
     The non-local contrib.  to forces
     atom    1 type  1   force =    -0.00000000    0.00000000   -0.00000000
     atom    2 type  2   force =     0.00000000   -0.00000000   -0.00000000
     The ionic contribution  to forces
     atom    1 type  1   force =     0.00000000   -0.00000000   -0.00000000
     atom    2 type  2   force =    -0.00000000   -0.00000000   -0.00000000
     The local contribution  to forces
     atom    1 type  1   force =    -0.00000000    0.00000000    0.00000000
     atom    2 type  2   force =     0.00000000    0.00000000    0.00000000
     The core correction contribution to forces
     atom    1 type  1   force =     0.00000000    0.00000000    0.00000000
     atom    2 type  2   force =     0.00000000    0.00000000    0.00000000
     The Hubbard contrib.    to forces
     atom    1 type  1   force =     0.00000000    0.00000000    0.00000000
     atom    2 type  2   force =     0.00000000    0.00000000    0.00000000
     The SCF correction term to forces
     atom    1 type  1   force =    -0.00000000   -0.00000000    0.00000000
     atom    2 type  2   force =     0.00000000    0.00000000   -0.00000000

     Total force =     0.000000     Total SCF correction =     0.000000


     Computing stress (Cartesian axis) and pressure

          total   stress  (Ry/bohr**3)                   (kbar)     P=       25.04
   0.00017022   0.00000000   0.00000000           25.04        0.00        0.00
  -0.00000000   0.00017022  -0.00000000           -0.00       25.04       -0.00
  -0.00000000   0.00000000   0.00017022           -0.00        0.00       25.04

     Energy error            =      3.5E-03 Ry
     Gradient error          =      6.2E-32 Ry/Bohr
     Cell gradient error     =      2.5E+01 kbar

     number of scf cycles    =   4
     number of bfgs steps    =   3

     enthalpy           old  =     -17.3224776123 Ry
     enthalpy           new  =     -17.3260202269 Ry

     CASE: enthalpy          _new < enthalpy          _old

     new trust radius        =       0.0391782500 bohr
     new conv_thr            =            1.0E-10 Ry

     new unit-cell volume =    289.17043 a.u.^3 (    42.85064 Ang^3 )
     density =      5.60525 g/cm^3

CELL_PARAMETERS (alat= 11.21704970)
  -0.467910347   0.000000000   0.467910347
   0.000000000   0.467910347   0.467910347
  -0.467910347   0.467910347  -0.000000000

ATOMIC_POSITIONS (alat)
Ga           -0.0000000000       -0.0000000000        0.0000000000
As            0.2339551733        0.2339551733        0.2339551733



     Writing config-only to output data dir /home/paolo/project_labqsm/Silicon/SCRATCH/gallium_arsenide.save/
     NEW-OLD atomic charge density approx. for the potential
     extrapolated charge    8.27481, renormalised to    8.00000

     total cpu time spent up to now is       64.2 secs

     Self-consistent Calculation

     iteration #  1     ecut=    60.00 Ry     beta= 0.70
     Davidson diagonalization with overlap
     ethr =  1.00E-06,  avg # of iterations =  8.2

     total cpu time spent up to now is       65.3 secs

     total energy              =     -17.32501971 Ry
     estimated scf accuracy    <       0.00089270 Ry

     iteration #  2     ecut=    60.00 Ry     beta= 0.70
     Davidson diagonalization with overlap
     ethr =  1.12E-05,  avg # of iterations =  4.3

     total cpu time spent up to now is       65.9 secs

     total energy              =     -17.32682577 Ry
     estimated scf accuracy    <       0.00148822 Ry

     iteration #  3     ecut=    60.00 Ry     beta= 0.70
     Davidson diagonalization with overlap
     ethr =  1.12E-05,  avg # of iterations =  1.1

     total cpu time spent up to now is       66.3 secs

     total energy              =     -17.32652567 Ry
     estimated scf accuracy    <       0.00050557 Ry

     iteration #  4     ecut=    60.00 Ry     beta= 0.70
     Davidson diagonalization with overlap
     ethr =  6.32E-06,  avg # of iterations =  2.5

     total cpu time spent up to now is       66.8 secs

     total energy              =     -17.32678584 Ry
     estimated scf accuracy    <       0.00012499 Ry

     iteration #  5     ecut=    60.00 Ry     beta= 0.70
     Davidson diagonalization with overlap
     ethr =  1.56E-06,  avg # of iterations =  2.8

     total cpu time spent up to now is       67.3 secs

     total energy              =     -17.32682760 Ry
     estimated scf accuracy    <       0.00019670 Ry

     iteration #  6     ecut=    60.00 Ry     beta= 0.70
     Davidson diagonalization with overlap
     ethr =  1.56E-06,  avg # of iterations =  1.0

     total cpu time spent up to now is       67.6 secs

     total energy              =     -17.32679549 Ry
     estimated scf accuracy    <       0.00025931 Ry

     iteration #  7     ecut=    60.00 Ry     beta= 0.70
     Davidson diagonalization with overlap
     ethr =  1.56E-06,  avg # of iterations =  1.0

     total cpu time spent up to now is       68.0 secs

     total energy              =     -17.32678290 Ry
     estimated scf accuracy    <       0.00020058 Ry

     iteration #  8     ecut=    60.00 Ry     beta= 0.70
     Davidson diagonalization with overlap
     ethr =  1.56E-06,  avg # of iterations =  1.0

     total cpu time spent up to now is       68.4 secs

     total energy              =     -17.32678513 Ry
     estimated scf accuracy    <       0.00016760 Ry

     iteration #  9     ecut=    60.00 Ry     beta= 0.70
     Davidson diagonalization with overlap
     ethr =  1.56E-06,  avg # of iterations =  1.0

     total cpu time spent up to now is       68.7 secs

     total energy              =     -17.32678026 Ry
     estimated scf accuracy    <       0.00016953 Ry

     iteration # 10     ecut=    60.00 Ry     beta= 0.70
     Davidson diagonalization with overlap
     ethr =  1.56E-06,  avg # of iterations =  1.0

     total cpu time spent up to now is       69.1 secs

     total energy              =     -17.32677005 Ry
     estimated scf accuracy    <       0.00015618 Ry

     iteration # 11     ecut=    60.00 Ry     beta= 0.70
     Davidson diagonalization with overlap
     ethr =  1.56E-06,  avg # of iterations =  1.0

     total cpu time spent up to now is       69.4 secs

     total energy              =     -17.32675989 Ry
     estimated scf accuracy    <       0.00013294 Ry

     iteration # 12     ecut=    60.00 Ry     beta= 0.70
     Davidson diagonalization with overlap
     ethr =  1.56E-06,  avg # of iterations =  1.0

     total cpu time spent up to now is       69.8 secs

     total energy              =     -17.32676176 Ry
     estimated scf accuracy    <       0.00010887 Ry

     iteration # 13     ecut=    60.00 Ry     beta= 0.70
     Davidson diagonalization with overlap
     ethr =  1.36E-06,  avg # of iterations =  1.0

     total cpu time spent up to now is       70.2 secs

     total energy              =     -17.32670212 Ry
     estimated scf accuracy    <       0.00011052 Ry

     iteration # 14     ecut=    60.00 Ry     beta= 0.70
     Davidson diagonalization with overlap
     ethr =  1.36E-06,  avg # of iterations =  2.0

     total cpu time spent up to now is       70.6 secs

     total energy              =     -17.32671940 Ry
     estimated scf accuracy    <       0.00000195 Ry

     iteration # 15     ecut=    60.00 Ry     beta= 0.70
     Davidson diagonalization with overlap
     ethr =  2.44E-08,  avg # of iterations =  6.0

     total cpu time spent up to now is       71.4 secs

     total energy              =     -17.32672359 Ry
     estimated scf accuracy    <       0.00000008 Ry

     iteration # 16     ecut=    60.00 Ry     beta= 0.70
     Davidson diagonalization with overlap
     ethr =  9.85E-10,  avg # of iterations =  5.5

     total cpu time spent up to now is       72.2 secs

     total energy              =     -17.32672341 Ry
     estimated scf accuracy    <       0.00000074 Ry

     iteration # 17     ecut=    60.00 Ry     beta= 0.70
     Davidson diagonalization with overlap
     ethr =  9.85E-10,  avg # of iterations =  5.0

     total cpu time spent up to now is       72.9 secs

     total energy              =     -17.32672462 Ry
     estimated scf accuracy    <       0.00000003 Ry

     iteration # 18     ecut=    60.00 Ry     beta= 0.70
     Davidson diagonalization with overlap
     ethr =  4.10E-10,  avg # of iterations =  9.5

     total cpu time spent up to now is       74.2 secs

     total energy              =     -17.32672176 Ry
     estimated scf accuracy    <       0.00000620 Ry

     iteration # 19     ecut=    60.00 Ry     beta= 0.70
     Davidson diagonalization with overlap
     ethr =  4.10E-10,  avg # of iterations = 10.6

     total cpu time spent up to now is       75.6 secs

     total energy              =     -17.32672318 Ry
     estimated scf accuracy    <       0.00000108 Ry

     iteration # 20     ecut=    60.00 Ry     beta= 0.70
     Davidson diagonalization with overlap
     ethr =  4.10E-10,  avg # of iterations =  9.0

     total cpu time spent up to now is       76.9 secs

     total energy              =     -17.32672747 Ry
     estimated scf accuracy    <       0.00000116 Ry

     iteration # 21     ecut=    60.00 Ry     beta= 0.70
     Davidson diagonalization with overlap
     ethr =  4.10E-10,  avg # of iterations =  9.9

     total cpu time spent up to now is       78.3 secs

     total energy              =     -17.32673071 Ry
     estimated scf accuracy    <       0.00001472 Ry

     iteration # 22     ecut=    60.00 Ry     beta= 0.70
     Davidson diagonalization with overlap
     ethr =  4.10E-10,  avg # of iterations =  6.0

     total cpu time spent up to now is       79.1 secs

     total energy              =     -17.32673168 Ry
     estimated scf accuracy    <       0.00001994 Ry

     iteration # 23     ecut=    60.00 Ry     beta= 0.70
     Davidson diagonalization with overlap
     ethr =  4.10E-10,  avg # of iterations =  3.0

     total cpu time spent up to now is       79.6 secs

     total energy              =     -17.32671841 Ry
     estimated scf accuracy    <       0.00002225 Ry

     iteration # 24     ecut=    60.00 Ry     beta= 0.70
     Davidson diagonalization with overlap
     ethr =  4.10E-10,  avg # of iterations = 12.4

     total cpu time spent up to now is       81.3 secs

     total energy              =     -17.32672347 Ry
     estimated scf accuracy    <       0.00000068 Ry

     iteration # 25     ecut=    60.00 Ry     beta= 0.70
     Davidson diagonalization with overlap
     ethr =  4.10E-10,  avg # of iterations =  5.9

     total cpu time spent up to now is       82.1 secs

     total energy              =     -17.32672353 Ry
     estimated scf accuracy    <       0.00000004 Ry

     iteration # 26     ecut=    60.00 Ry     beta= 0.70
     Davidson diagonalization with overlap
     ethr =  4.10E-10,  avg # of iterations =  2.0

     total cpu time spent up to now is       82.5 secs

     total energy              =     -17.32672353 Ry
     estimated scf accuracy    <          5.8E-09 Ry

     iteration # 27     ecut=    60.00 Ry     beta= 0.70
     Davidson diagonalization with overlap
     ethr =  7.21E-11,  avg # of iterations =  2.9

     total cpu time spent up to now is       83.0 secs

     total energy              =     -17.32672353 Ry
     estimated scf accuracy    <          1.5E-09 Ry

     iteration # 28     ecut=    60.00 Ry     beta= 0.70
     Davidson diagonalization with overlap
     ethr =  1.84E-11,  avg # of iterations =  4.1

     total cpu time spent up to now is       83.6 secs

     total energy              =     -17.32672354 Ry
     estimated scf accuracy    <          1.7E-10 Ry

     iteration # 29     ecut=    60.00 Ry     beta= 0.70
     Davidson diagonalization with overlap
     ethr =  2.12E-12,  avg # of iterations =  3.2

     total cpu time spent up to now is       84.1 secs

     total energy              =     -17.32672354 Ry
     estimated scf accuracy    <          1.5E-10 Ry

     iteration # 30     ecut=    60.00 Ry     beta= 0.70
     Davidson diagonalization with overlap
     ethr =  1.82E-12,  avg # of iterations =  2.1

     total cpu time spent up to now is       84.6 secs

     End of self-consistent calculation

          k = 0.0000 0.0000 0.0000 (  2733 PWs)   bands (ev):

    -7.6661   5.1208   5.1208   5.1208

          k =-0.1336 0.1336-0.1336 (  2755 PWs)   bands (ev):

    -7.5046   3.2329   4.8851   4.8851

          k =-0.2671 0.2671-0.2671 (  2776 PWs)   bands (ev):

    -7.0448   0.9166   4.4462   4.4462

          k =-0.4007 0.4007-0.4007 (  2782 PWs)   bands (ev):

    -6.4150  -0.9152   4.1105   4.1105

          k = 0.5343-0.5343 0.5343 (  2788 PWs)   bands (ev):

    -6.0512  -1.6913   3.9905   3.9905

          k = 0.0000 0.2671 0.0000 (  2750 PWs)   bands (ev):

    -7.4501   3.2511   4.4467   4.4467

          k =-0.1336 0.4007-0.1336 (  2771 PWs)   bands (ev):

    -7.0865   1.4804   3.9456   3.9517

          k =-0.2671 0.5343-0.2671 (  2759 PWs)   bands (ev):

    -6.4949  -0.3792   3.3333   3.6648

          k = 0.6679-0.4007 0.6679 (  2771 PWs)   bands (ev):

    -5.9805  -1.5176   2.8846   3.6657

          k = 0.5343-0.2671 0.5343 (  2776 PWs)   bands (ev):

    -6.1104  -1.2553   2.7330   3.9438

          k = 0.4007-0.1336 0.4007 (  2772 PWs)   bands (ev):

    -6.7103   0.1972   2.9556   4.4132

          k = 0.2671 0.0000 0.2671 (  2764 PWs)   bands (ev):

    -7.2419   2.0031   3.7115   4.8555

          k = 0.0000 0.5343 0.0000 (  2786 PWs)   bands (ev):

    -6.8262   1.0230   3.3931   3.3931

          k =-0.1336 0.6679-0.1336 (  2767 PWs)   bands (ev):

    -6.3183  -0.2171   2.6297   3.0609

          k = 0.8014-0.2671 0.8014 (  2783 PWs)   bands (ev):

    -5.7747  -1.2593   1.7556   3.0498

          k = 0.6679-0.1336 0.6679 (  2767 PWs)   bands (ev):

    -5.6886  -1.3860   1.3088   3.3588

          k = 0.5343 0.0000 0.5343 (  2754 PWs)   bands (ev):

    -6.1657  -0.6104   1.6052   3.8990

          k = 0.0000 0.8014 0.0000 (  2782 PWs)   bands (ev):

    -5.9258  -0.8842   2.6531   2.6531

          k = 0.9350-0.1336 0.9350 (  2778 PWs)   bands (ev):

    -5.4953  -1.5291   1.8950   2.5688

          k = 0.8014 0.0000 0.8014 (  2784 PWs)   bands (ev):

    -5.3834  -1.5968   1.0733   2.8262

          k = 0.0000-1.0686 0.0000 (  2778 PWs)   bands (ev):

    -5.3444  -1.8114   2.3947   2.3947

          k =-0.2671 0.5343-0.0000 (  2766 PWs)   bands (ev):

    -6.6479   0.3876   2.6353   3.8079

          k = 0.6679-0.4007 0.9350 (  2768 PWs)   bands (ev):

    -6.0581  -0.8752   1.9539   3.3502

          k = 0.5343-0.2671 0.8014 (  2774 PWs)   bands (ev):

    -5.7264  -1.4903   1.7764   3.1382

          k = 0.8014-0.2671 1.0686 (  2774 PWs)   bands (ev):

    -5.8205  -1.0148   1.9642   2.5679

          k = 0.6679-0.1336 0.9350 (  2764 PWs)   bands (ev):

    -5.4478  -1.4962   1.2857   2.3782

          k = 0.5343 0.0000 0.8014 (  2754 PWs)   bands (ev):

    -5.5813  -1.3250   1.1295   2.7379

          k =-0.2671-1.0686 0.0000 (  2772 PWs)   bands (ev):

    -5.3200  -1.7041   1.8499   1.9785

          k =-0.5343-1.0686-0.0000 (  2740 PWs)   bands (ev):

    -5.2952  -1.5791   1.3922   1.6519

     highest occupied level (ev):     5.1208

!    total energy              =     -17.32672354 Ry
     estimated scf accuracy    <          7.4E-12 Ry

     The total energy is the sum of the following terms:
     one-electron contribution =       3.13825936 Ry
     hartree contribution      =       1.49317911 Ry
     xc contribution           =      -4.81603893 Ry
     ewald contribution        =     -17.14212308 Ry

     convergence has been achieved in  30 iterations

     Forces acting on atoms (cartesian axes, Ry/au):

     atom    1 type  1   force =     0.00000000    0.00000000   -0.00000000
     atom    2 type  2   force =    -0.00000000    0.00000000   -0.00000000
     The non-local contrib.  to forces
     atom    1 type  1   force =    -0.00000000    0.00000000   -0.00000000
     atom    2 type  2   force =     0.00000000   -0.00000000    0.00000000
     The ionic contribution  to forces
     atom    1 type  1   force =     0.00000000   -0.00000000   -0.00000000
     atom    2 type  2   force =    -0.00000000    0.00000000    0.00000000
     The local contribution  to forces
     atom    1 type  1   force =     0.00000000    0.00000000   -0.00000000
     atom    2 type  2   force =     0.00000000    0.00000000    0.00000000
     The core correction contribution to forces
     atom    1 type  1   force =     0.00000000    0.00000000    0.00000000
     atom    2 type  2   force =     0.00000000    0.00000000    0.00000000
     The Hubbard contrib.    to forces
     atom    1 type  1   force =     0.00000000    0.00000000    0.00000000
     atom    2 type  2   force =     0.00000000    0.00000000    0.00000000
     The SCF correction term to forces
     atom    1 type  1   force =     0.00000000   -0.00000000   -0.00000000
     atom    2 type  2   force =     0.00000000   -0.00000000    0.00000000

     Total force =     0.000000     Total SCF correction =     0.000000


     Computing stress (Cartesian axis) and pressure

          total   stress  (Ry/bohr**3)                   (kbar)     P=       -3.32
  -0.00002257  -0.00000000  -0.00000000           -3.32       -0.00       -0.00
   0.00000000  -0.00002257  -0.00000000            0.00       -3.32       -0.00
  -0.00000000  -0.00000000  -0.00002257           -0.00       -0.00       -3.32

     Energy error            =      7.0E-04 Ry
     Gradient error          =      7.0E-32 Ry/Bohr
     Cell gradient error     =      3.3E+00 kbar

     number of scf cycles    =   5
     number of bfgs steps    =   4

     enthalpy           old  =     -17.3260202269 Ry
     enthalpy           new  =     -17.3267235350 Ry

     CASE: enthalpy          _new < enthalpy          _old

     new trust radius        =       0.0047087339 bohr
     new conv_thr            =            1.0E-10 Ry

     new unit-cell volume =    287.97101 a.u.^3 (    42.67290 Ang^3 )
     density =      5.62860 g/cm^3

CELL_PARAMETERS (alat= 11.21704970)
  -0.467262518   0.000000000   0.467262518
   0.000000000   0.467262518   0.467262518
  -0.467262518   0.467262518  -0.000000000

ATOMIC_POSITIONS (alat)
Ga           -0.0000000000       -0.0000000000        0.0000000000
As            0.2336312592        0.2336312592        0.2336312592



     Writing config-only to output data dir /home/paolo/project_labqsm/Silicon/SCRATCH/gallium_arsenide.save/
     NEW-OLD atomic charge density approx. for the potential
     extrapolated charge    7.96669, renormalised to    8.00000

     total cpu time spent up to now is       85.9 secs

     Self-consistent Calculation

     iteration #  1     ecut=    60.00 Ry     beta= 0.70
     Davidson diagonalization with overlap
[...]



     bravais-lattice index     =            2
     lattice parameter (alat)  =      11.2170  a.u.
     unit-cell volume          =     287.9059 (a.u.)^3
     number of atoms/cell      =            2
     number of atomic types    =            2
     number of electrons       =         8.00
     number of Kohn-Sham states=            4
     kinetic-energy cutoff     =      60.0000  Ry
     charge density cutoff     =     240.0000  Ry
     scf convergence threshold =      1.0E-10
     mixing beta               =       0.7000
     number of iterations used =            8  plain     mixing
     press convergence thresh. =      5.0E-01
     Exchange-correlation= SLA  PZ   NOGX NOGC
                           (   1   1   0   0   0   0   0)

     celldm(1)=  11.217050  celldm(2)=   0.000000  celldm(3)=   0.000000
     celldm(4)=   0.000000  celldm(5)=   0.000000  celldm(6)=   0.000000

     crystal axes: (cart. coord. in units of alat)
               a(1) = (  -0.467227   0.000000   0.467227 )  
               a(2) = (   0.000000   0.467227   0.467227 )  
               a(3) = (  -0.467227   0.467227  -0.000000 )  

     reciprocal axes: (cart. coord. in units 2 pi/alat)
               b(1) = ( -1.070143 -1.070143  1.070143 )  
               b(2) = (  1.070143  1.070143  1.070143 )  
               b(3) = ( -1.070143  1.070143 -1.070143 )  


     PseudoPot. # 1 for Ga read from file:
     /home/paolo/project_labqsm/pseudopotentials/Ga.pz-bhs.UPF
     MD5 check sum: 09b06f4702dea281feaf053846378b49
     Pseudo is Norm-conserving, Zval =  3.0
     Generated by new atomic code, or converted to UPF format
     Using radial grid of  523 points,  2 beta functions with: 
                l(1) =   0
                l(2) =   1

     PseudoPot. # 2 for As read from file:
     /home/paolo/project_labqsm/pseudopotentials/As.pz-bhs.UPF
     MD5 check sum: d67708448008dff3ec15a9356ed645c7
     Pseudo is Norm-conserving, Zval =  5.0
     Generated by new atomic code, or converted to UPF format
     Using radial grid of  525 points,  2 beta functions with: 
                l(1) =   0
                l(2) =   1

     atomic species   valence    mass     pseudopotential
        Ga             3.00    69.72300     Ga( 1.00)
        As             5.00    74.92200     As( 1.00)

     24 Sym. Ops. (no inversion) found



   Cartesian axes

     site n.     atom                  positions (alat units)
         1           Ga  tau(   1) = (  -0.0000000  -0.0000000  -0.0000000  )
         2           As  tau(   2) = (   0.2336136   0.2336136   0.2336136  )

     number of k points=    29
                       cart. coord. in units 2pi/alat
        k(    1) = (   0.0000000   0.0000000   0.0000000), wk =   0.0039062
        k(    2) = (  -0.1337679   0.1337679  -0.1337679), wk =   0.0312500
        k(    3) = (  -0.2675357   0.2675357  -0.2675357), wk =   0.0312500
        k(    4) = (  -0.4013036   0.4013036  -0.4013036), wk =   0.0312500
        k(    5) = (   0.5350715  -0.5350715   0.5350715), wk =   0.0156250
        k(    6) = (   0.0000000   0.2675357   0.0000000), wk =   0.0234375
        k(    7) = (  -0.1337679   0.4013036  -0.1337679), wk =   0.0937500
        k(    8) = (  -0.2675357   0.5350715  -0.2675357), wk =   0.0937500
        k(    9) = (   0.6688394  -0.4013036   0.6688394), wk =   0.0937500
        k(   10) = (   0.5350715  -0.2675357   0.5350715), wk =   0.0937500
        k(   11) = (   0.4013036  -0.1337679   0.4013036), wk =   0.0937500
        k(   12) = (   0.2675357   0.0000000   0.2675357), wk =   0.0468750
        k(   13) = (   0.0000000   0.5350715   0.0000000), wk =   0.0234375
        k(   14) = (  -0.1337679   0.6688394  -0.1337679), wk =   0.0937500
        k(   15) = (   0.8026072  -0.2675357   0.8026072), wk =   0.0937500
        k(   16) = (   0.6688394  -0.1337679   0.6688394), wk =   0.0937500
        k(   17) = (   0.5350715   0.0000000   0.5350715), wk =   0.0468750
        k(   18) = (   0.0000000   0.8026072   0.0000000), wk =   0.0234375
        k(   19) = (   0.9363751  -0.1337679   0.9363751), wk =   0.0937500
        k(   20) = (   0.8026072   0.0000000   0.8026072), wk =   0.0468750
        k(   21) = (   0.0000000  -1.0701430   0.0000000), wk =   0.0117188
        k(   22) = (  -0.2675357   0.5350715  -0.0000000), wk =   0.0937500
        k(   23) = (   0.6688394  -0.4013036   0.9363751), wk =   0.1875000
        k(   24) = (   0.5350715  -0.2675357   0.8026072), wk =   0.0937500
        k(   25) = (   0.8026072  -0.2675357   1.0701430), wk =   0.0937500
        k(   26) = (   0.6688394  -0.1337679   0.9363751), wk =   0.1875000
        k(   27) = (   0.5350715   0.0000000   0.8026072), wk =   0.0937500
        k(   28) = (  -0.2675357  -1.0701430   0.0000000), wk =   0.0468750
        k(   29) = (  -0.5350715  -1.0701430   0.0000000), wk =   0.0234375

     Dense  grid:    18149 G-vectors     FFT dimensions: (  40,  40,  40)

     Estimated max dynamical RAM per process >      18.23 MB

     Initial potential from superposition of free atoms

     starting charge       7.9979, renormalised to       8.0000
     Starting wfcs are    8 randomized atomic wfcs

     total cpu time spent up to now is      102.9 secs

     Self-consistent Calculation

     iteration #  1     ecut=    60.00 Ry     beta= 0.70
     Davidson diagonalization with overlap
     ethr =  1.00E-06,  avg # of iterations = 14.5

     total cpu time spent up to now is      104.8 secs

     total energy              =     -17.32154993 Ry
     estimated scf accuracy    <       0.04351718 Ry

     iteration #  2     ecut=    60.00 Ry     beta= 0.70
     Davidson diagonalization with overlap
     ethr =  5.44E-04,  avg # of iterations =  2.0

     total cpu time spent up to now is      105.2 secs

     total energy              =     -17.32624904 Ry
     estimated scf accuracy    <       0.00222112 Ry

     iteration #  3     ecut=    60.00 Ry     beta= 0.70
     Davidson diagonalization with overlap
     ethr =  2.78E-05,  avg # of iterations =  2.0

     total cpu time spent up to now is      105.6 secs

     total energy              =     -17.32659033 Ry
     estimated scf accuracy    <       0.00017299 Ry

     iteration #  4     ecut=    60.00 Ry     beta= 0.70
     Davidson diagonalization with overlap
     ethr =  2.16E-06,  avg # of iterations =  3.8

     total cpu time spent up to now is      106.2 secs

     total energy              =     -17.32670154 Ry
     estimated scf accuracy    <       0.00003665 Ry

     iteration #  5     ecut=    60.00 Ry     beta= 0.70
     Davidson diagonalization with overlap
     ethr =  4.58E-07,  avg # of iterations =  1.8

     total cpu time spent up to now is      106.6 secs

     total energy              =     -17.32669625 Ry
     estimated scf accuracy    <       0.00001293 Ry

     iteration #  6     ecut=    60.00 Ry     beta= 0.70
     Davidson diagonalization with overlap
     ethr =  1.62E-07,  avg # of iterations =  4.2

     total cpu time spent up to now is      107.1 secs

     total energy              =     -17.32670566 Ry
     estimated scf accuracy    <       0.00001243 Ry

     iteration #  7     ecut=    60.00 Ry     beta= 0.70
     Davidson diagonalization with overlap
     ethr =  1.55E-07,  avg # of iterations =  1.0

     total cpu time spent up to now is      107.5 secs

     total energy              =     -17.32670196 Ry
     estimated scf accuracy    <       0.00000753 Ry

     iteration #  8     ecut=    60.00 Ry     beta= 0.70
     Davidson diagonalization with overlap
     ethr =  9.42E-08,  avg # of iterations =  2.0

     total cpu time spent up to now is      107.9 secs

     total energy              =     -17.32670294 Ry
     estimated scf accuracy    <       0.00000024 Ry

     iteration #  9     ecut=    60.00 Ry     beta= 0.70
     Davidson diagonalization with overlap
     ethr =  3.03E-09,  avg # of iterations =  6.3

     total cpu time spent up to now is      108.8 secs

     total energy              =     -17.32670337 Ry
     estimated scf accuracy    <       0.00000082 Ry

     iteration # 10     ecut=    60.00 Ry     beta= 0.70
     Davidson diagonalization with overlap
     ethr =  3.03E-09,  avg # of iterations =  1.6

     total cpu time spent up to now is      109.1 secs

     total energy              =     -17.32670345 Ry
     estimated scf accuracy    <       0.00000037 Ry

     iteration # 11     ecut=    60.00 Ry     beta= 0.70
     Davidson diagonalization with overlap
     ethr =  3.03E-09,  avg # of iterations =  1.0

     total cpu time spent up to now is      109.5 secs

     total energy              =     -17.32670315 Ry
     estimated scf accuracy    <       0.00000047 Ry

     iteration # 12     ecut=    60.00 Ry     beta= 0.70
     Davidson diagonalization with overlap
     ethr =  3.03E-09,  avg # of iterations =  3.3

     total cpu time spent up to now is      110.0 secs

     total energy              =     -17.32670328 Ry
     estimated scf accuracy    <       0.00000002 Ry

     iteration # 13     ecut=    60.00 Ry     beta= 0.70
     Davidson diagonalization with overlap
     ethr =  2.48E-10,  avg # of iterations =  4.9

     total cpu time spent up to now is      110.7 secs

     total energy              =     -17.32670329 Ry
     estimated scf accuracy    <       0.00000005 Ry

     iteration # 14     ecut=    60.00 Ry     beta= 0.70
     Davidson diagonalization with overlap
     ethr =  2.48E-10,  avg # of iterations =  1.0

     total cpu time spent up to now is      111.0 secs

     total energy              =     -17.32670330 Ry
     estimated scf accuracy    <       0.00000005 Ry

     iteration # 15     ecut=    60.00 Ry     beta= 0.70
     Davidson diagonalization with overlap
     ethr =  2.48E-10,  avg # of iterations =  1.0

     total cpu time spent up to now is      111.4 secs

     total energy              =     -17.32670330 Ry
     estimated scf accuracy    <       0.00000005 Ry

     iteration # 16     ecut=    60.00 Ry     beta= 0.70
     Davidson diagonalization with overlap
     ethr =  2.48E-10,  avg # of iterations =  1.0

     total cpu time spent up to now is      111.7 secs

     total energy              =     -17.32670329 Ry
     estimated scf accuracy    <       0.00000005 Ry

     iteration # 17     ecut=    60.00 Ry     beta= 0.70
     Davidson diagonalization with overlap
     ethr =  2.48E-10,  avg # of iterations =  1.0

     total cpu time spent up to now is      112.0 secs

     total energy              =     -17.32670328 Ry
     estimated scf accuracy    <       0.00000003 Ry

     iteration # 18     ecut=    60.00 Ry     beta= 0.70
     Davidson diagonalization with overlap
     ethr =  2.48E-10,  avg # of iterations =  2.0

     total cpu time spent up to now is      112.4 secs

     total energy              =     -17.32670328 Ry
     estimated scf accuracy    <          7.4E-09 Ry

     iteration # 19     ecut=    60.00 Ry     beta= 0.70
     Davidson diagonalization with overlap
     ethr =  9.28E-11,  avg # of iterations =  1.4

     total cpu time spent up to now is      112.8 secs

     total energy              =     -17.32670328 Ry
     estimated scf accuracy    <          5.6E-09 Ry

     iteration # 20     ecut=    60.00 Ry     beta= 0.70
     Davidson diagonalization with overlap
     ethr =  6.99E-11,  avg # of iterations =  1.0

     total cpu time spent up to now is      113.1 secs

     total energy              =     -17.32670328 Ry
     estimated scf accuracy    <          4.1E-09 Ry

     iteration # 21     ecut=    60.00 Ry     beta= 0.70
     Davidson diagonalization with overlap
     ethr =  5.13E-11,  avg # of iterations =  1.0

     total cpu time spent up to now is      113.5 secs

     total energy              =     -17.32670328 Ry
     estimated scf accuracy    <          3.8E-09 Ry

     iteration # 22     ecut=    60.00 Ry     beta= 0.70
     Davidson diagonalization with overlap
     ethr =  4.78E-11,  avg # of iterations =  3.8

     total cpu time spent up to now is      114.1 secs

     total energy              =     -17.32670328 Ry
     estimated scf accuracy    <          1.2E-09 Ry

     iteration # 23     ecut=    60.00 Ry     beta= 0.70
     Davidson diagonalization with overlap
     ethr =  1.49E-11,  avg # of iterations =  2.2

     total cpu time spent up to now is      114.5 secs

     End of self-consistent calculation

          k = 0.0000 0.0000 0.0000 (  2229 PWs)   bands (ev):

    -7.6502   5.1666   5.1666   5.1666

          k =-0.1338 0.1338-0.1338 (  2235 PWs)   bands (ev):

    -7.4878   3.2799   4.9295   4.9295

          k =-0.2675 0.2675-0.2675 (  2238 PWs)   bands (ev):

    -7.0256   0.9533   4.4883   4.4883

          k =-0.4013 0.4013-0.4013 (  2253 PWs)   bands (ev):

    -6.3915  -0.8883   4.1510   4.1510

          k = 0.5351-0.5351 0.5351 (  2276 PWs)   bands (ev):

    -6.0246  -1.6695   4.0305   4.0305

          k = 0.0000 0.2675 0.0000 (  2233 PWs)   bands (ev):

    -7.4331   3.3024   4.4881   4.4881

          k =-0.1338 0.4013-0.1338 (  2246 PWs)   bands (ev):

    -7.0676   1.5223   3.9860   3.9905

          k =-0.2675 0.5351-0.2675 (  2255 PWs)   bands (ev):

    -6.4723  -0.3479   3.3717   3.7024

          k = 0.6688-0.4013 0.6688 (  2266 PWs)   bands (ev):

    -5.9536  -1.4939   2.9211   3.7036

          k = 0.5351-0.2675 0.5351 (  2253 PWs)   bands (ev):

    -6.0847  -1.2298   2.7681   3.9833

          k = 0.4013-0.1338 0.4013 (  2251 PWs)   bands (ev):

    -6.6891   0.2319   2.9904   4.4553

          k = 0.2675 0.0000 0.2675 (  2239 PWs)   bands (ev):

    -7.2238   2.0471   3.7487   4.9001

          k = 0.0000 0.5351 0.0000 (  2269 PWs)   bands (ev):

    -6.8059   1.0662   3.4290   3.4290

          k =-0.1338 0.6688-0.1338 (  2265 PWs)   bands (ev):

    -6.2948  -0.1811   2.6621   3.0953

          k = 0.8026-0.2675 0.8026 (  2265 PWs)   bands (ev):

    -5.7466  -1.2309   1.7841   3.0843

          k = 0.6688-0.1338 0.6688 (  2262 PWs)   bands (ev):

    -5.6596  -1.3589   1.3349   3.3950

          k = 0.5351 0.0000 0.5351 (  2269 PWs)   bands (ev):

    -6.1408  -0.5778   1.6320   3.9382

          k = 0.0000 0.8026 0.0000 (  2265 PWs)   bands (ev):

    -5.8995  -0.8514   2.6856   2.6856

          k = 0.9364-0.1338 0.9364 (  2264 PWs)   bands (ev):

    -5.4650  -1.5010   1.9229   2.6009

          k = 0.8026 0.0000 0.8026 (  2257 PWs)   bands (ev):

    -5.3516  -1.5695   1.0964   2.8596

          k = 0.0000-1.0701 0.0000 (  2272 PWs)   bands (ev):

    -5.3125  -1.7858   2.4260   2.4260

          k =-0.2675 0.5351-0.0000 (  2267 PWs)   bands (ev):

    -6.6264   0.4258   2.6671   3.8467

          k = 0.6688-0.4013 0.9364 (  2264 PWs)   bands (ev):

    -6.0323  -0.8449   1.9838   3.3860

          k = 0.5351-0.2675 0.8026 (  2270 PWs)   bands (ev):

    -5.6975  -1.4649   1.8064   3.1727

          k = 0.8026-0.2675 1.0701 (  2270 PWs)   bands (ev):

    -5.7931  -0.9830   1.9928   2.5991

          k = 0.6688-0.1338 0.9364 (  2258 PWs)   bands (ev):

    -5.4167  -1.4682   1.3104   2.4084

          k = 0.5351 0.0000 0.8026 (  2268 PWs)   bands (ev):

    -5.5515  -1.2959   1.1533   2.7702

          k =-0.2675-1.0701 0.0000 (  2244 PWs)   bands (ev):

    -5.2878  -1.6775   1.8778   2.0065

          k =-0.5351-1.0701 0.0000 (  2244 PWs)   bands (ev):

    -5.2626  -1.5511   1.4171   1.6776

     highest occupied level (ev):     5.1666

!    total energy              =     -17.32670328 Ry
     estimated scf accuracy    <          8.5E-11 Ry

     The total energy is the sum of the following terms:
     one-electron contribution =       3.17300373 Ry
     hartree contribution      =       1.48767601 Ry
     xc contribution           =      -4.82019917 Ry
     ewald contribution        =     -17.16718385 Ry

     convergence has been achieved in  23 iterations

     Forces acting on atoms (cartesian axes, Ry/au):

     atom    1 type  1   force =    -0.00000000    0.00000000   -0.00000000
     atom    2 type  2   force =     0.00000000   -0.00000000    0.00000000
     The non-local contrib.  to forces
     atom    1 type  1   force =     0.00000000   -0.00000000    0.00000000
     atom    2 type  2   force =     0.00000000   -0.00000000    0.00000000
     The ionic contribution  to forces
     atom    1 type  1   force =    -0.00000000    0.00000000    0.00000000
     atom    2 type  2   force =    -0.00000000    0.00000000   -0.00000000
     The local contribution  to forces
     atom    1 type  1   force =    -0.00000000    0.00000000    0.00000000
     atom    2 type  2   force =    -0.00000000    0.00000000    0.00000000
     The core correction contribution to forces
     atom    1 type  1   force =     0.00000000    0.00000000    0.00000000
     atom    2 type  2   force =     0.00000000    0.00000000    0.00000000
     The Hubbard contrib.    to forces
     atom    1 type  1   force =     0.00000000    0.00000000    0.00000000
     atom    2 type  2   force =     0.00000000    0.00000000    0.00000000
     The SCF correction term to forces
     atom    1 type  1   force =    -0.00000000   -0.00000000    0.00000000
     atom    2 type  2   force =     0.00000000    0.00000000   -0.00000000

     Total force =     0.000000     Total SCF correction =     0.000000


     Computing stress (Cartesian axis) and pressure

          total   stress  (Ry/bohr**3)                   (kbar)     P=        0.02
   0.00000011   0.00000000   0.00000000            0.02        0.00        0.00
   0.00000000   0.00000011  -0.00000000            0.00        0.02       -0.00
   0.00000000  -0.00000000   0.00000011            0.00       -0.00        0.02


     Writing all to output data dir /home/paolo/project_labqsm/Silicon/SCRATCH/gallium_arsenide.save/

     init_run     :      1.23s CPU      1.25s WALL (       2 calls)
     electrons    :    102.22s CPU    104.43s WALL (       8 calls)
     update_pot   :      2.66s CPU      2.67s WALL (       6 calls)
     forces       :      1.52s CPU      1.54s WALL (       8 calls)
     stress       :      3.97s CPU      5.28s WALL (       8 calls)

     Called by init_run:
     wfcinit      :      0.61s CPU      0.60s WALL (       2 calls)
     potinit      :      0.31s CPU      0.32s WALL (       2 calls)
     hinit0       :      0.30s CPU      0.31s WALL (       2 calls)

     Called by electrons:
     c_bands      :     88.58s CPU     90.42s WALL (     184 calls)
     sum_band     :     12.44s CPU     12.77s WALL (     184 calls)
     v_of_rho     :      0.59s CPU      0.55s WALL (     190 calls)
     mix_rho      :      0.55s CPU      0.59s WALL (     184 calls)

     Called by c_bands:
     init_us_2    :      2.80s CPU      2.89s WALL (   11194 calls)
     init_us_2:cp :      2.75s CPU      2.85s WALL (   11194 calls)
     cegterg      :     86.69s CPU     87.50s WALL (    5336 calls)

     Called by *egterg:
     cdiaghg      :      0.38s CPU      0.39s WALL (   22309 calls)
     h_psi        :     80.03s CPU     80.55s WALL (   22599 calls)
     g_psi        :      0.62s CPU      0.43s WALL (   17205 calls)

     Called by h_psi:
     h_psi:calbec :      1.67s CPU      1.85s WALL (   22599 calls)
     vloc_psi     :     76.75s CPU     76.93s WALL (   22599 calls)
     add_vuspsi   :      1.36s CPU      1.34s WALL (   22599 calls)

     General routines
     calbec       :      1.78s CPU      1.87s WALL (   23759 calls)
     fft          :      0.44s CPU      0.47s WALL (     610 calls)
     ffts         :      0.17s CPU      0.15s WALL (     184 calls)
     fftw         :     80.42s CPU     80.01s WALL (  171398 calls)


     PWSCF        :   1m51.64s CPU   1m55.25s WALL


   This run was terminated on:  12:23: 3  25May2024            

=------------------------------------------------------------------------------=
   JOB DONE.
=------------------------------------------------------------------------------=
