
     Program PWSCF v.7.2 starts on 11Jun2024 at 13: 6:16 

     This program is part of the open-source Quantum ESPRESSO suite
     for quantum simulation of materials; please cite
         "P. Giannozzi et al., J. Phys.:Condens. Matter 21 395502 (2009);
         "P. Giannozzi et al., J. Phys.:Condens. Matter 29 465901 (2017);
         "P. Giannozzi et al., J. Chem. Phys. 152 154105 (2020);
          URL http://www.quantum-espresso.org", 
     in publications or presentations arising from this work. More details at
     http://www.quantum-espresso.org/quote

     Serial version
     8270 MiB available memory on the printing compute node when the environment starts

     Waiting for input...
     Reading input from standard input

     Current dimensions of program PWSCF are:
     Max number of different atomic species (ntypx) = 10
     Max number of k-points (npk) =  40000
     Max angular momentum in pseudopotentials (lmaxx) =  4
     file Ga.pz-dn-rrkjus_psl.0.2.UPF: wavefunction(s)  4S 3D renormalized


     G-vector sticks info
     --------------------
     sticks:   dense  smooth     PW     G-vecs:    dense   smooth      PW
     Sum        2611    1285    379                88275    30923    4957

     Using Slab Decomposition



     bravais-lattice index     =            2
     lattice parameter (alat)  =      10.8966  a.u.
     unit-cell volume          =     323.4510 (a.u.)^3
     number of atoms/cell      =            2
     number of atomic types    =            2
     number of electrons       =        18.00
     number of Kohn-Sham states=            9
     kinetic-energy cutoff     =      80.0000  Ry
     charge density cutoff     =     640.0000  Ry
     scf convergence threshold =      1.0E-08
     mixing beta               =       0.7000
     number of iterations used =            8  plain     mixing
     Exchange-correlation= LDA
                           (   1   1   0   0   0   0   0)

     celldm(1)=  10.896563  celldm(2)=   0.000000  celldm(3)=   0.000000
     celldm(4)=   0.000000  celldm(5)=   0.000000  celldm(6)=   0.000000

     crystal axes: (cart. coord. in units of alat)
               a(1) = (  -0.500000   0.000000   0.500000 )  
               a(2) = (   0.000000   0.500000   0.500000 )  
               a(3) = (  -0.500000   0.500000   0.000000 )  

     reciprocal axes: (cart. coord. in units 2 pi/alat)
               b(1) = ( -1.000000 -1.000000  1.000000 )  
               b(2) = (  1.000000  1.000000  1.000000 )  
               b(3) = ( -1.000000  1.000000 -1.000000 )  


     PseudoPot. # 1 for Ga read from file:
     /home/paolo/LABQSM/pseudo/Ga.pz-dn-rrkjus_psl.0.2.UPF
     MD5 check sum: 337958ae198bc3768054a43796a587a1
     Pseudo is Ultrasoft + core correction, Zval = 13.0
     Generated using "atomic" code by A. Dal Corso  v.5.0.2 svn rev. 9415
     Using radial grid of 1205 points,  6 beta functions with: 
                l(1) =   0
                l(2) =   0
                l(3) =   1
                l(4) =   1
                l(5) =   2
                l(6) =   2
     Q(r) pseudized with 0 coefficients 


     PseudoPot. # 2 for As read from file:
     /home/paolo/LABQSM/pseudo/As.pz-n-rrkjus_psl.0.2.UPF
     MD5 check sum: f80104272e9b817acfe428865afbdb7e
     Pseudo is Ultrasoft + core correction, Zval =  5.0
     Generated using "atomic" code by A. Dal Corso  v.5.0.2 svn rev. 9415
     Using radial grid of 1209 points,  4 beta functions with: 
                l(1) =   0
                l(2) =   0
                l(3) =   1
                l(4) =   1
     Q(r) pseudized with 0 coefficients 


     atomic species   valence    mass     pseudopotential
        Ga            13.00    69.72300     Ga( 1.00)
        As             5.00    74.92200     As( 1.00)

     24 Sym. Ops. (no inversion) found



   Cartesian axes

     site n.     atom                  positions (alat units)
         1           Ga  tau(   1) = (   0.0000000   0.0000000   0.0000000  )
         2           As  tau(   2) = (   0.2500000   0.2500000   0.2500000  )

     number of k points=    29
                       cart. coord. in units 2pi/alat
        k(    1) = (   0.0000000   0.0000000   0.0000000), wk =   0.0039062
        k(    2) = (  -0.1250000   0.1250000  -0.1250000), wk =   0.0312500
        k(    3) = (  -0.2500000   0.2500000  -0.2500000), wk =   0.0312500
        k(    4) = (  -0.3750000   0.3750000  -0.3750000), wk =   0.0312500
        k(    5) = (   0.5000000  -0.5000000   0.5000000), wk =   0.0156250
        k(    6) = (   0.0000000   0.2500000   0.0000000), wk =   0.0234375
        k(    7) = (  -0.1250000   0.3750000  -0.1250000), wk =   0.0937500
        k(    8) = (  -0.2500000   0.5000000  -0.2500000), wk =   0.0937500
        k(    9) = (   0.6250000  -0.3750000   0.6250000), wk =   0.0937500
        k(   10) = (   0.5000000  -0.2500000   0.5000000), wk =   0.0937500
        k(   11) = (   0.3750000  -0.1250000   0.3750000), wk =   0.0937500
        k(   12) = (   0.2500000   0.0000000   0.2500000), wk =   0.0468750
        k(   13) = (   0.0000000   0.5000000   0.0000000), wk =   0.0234375
        k(   14) = (  -0.1250000   0.6250000  -0.1250000), wk =   0.0937500
        k(   15) = (   0.7500000  -0.2500000   0.7500000), wk =   0.0937500
        k(   16) = (   0.6250000  -0.1250000   0.6250000), wk =   0.0937500
        k(   17) = (   0.5000000   0.0000000   0.5000000), wk =   0.0468750
        k(   18) = (   0.0000000   0.7500000   0.0000000), wk =   0.0234375
        k(   19) = (   0.8750000  -0.1250000   0.8750000), wk =   0.0937500
        k(   20) = (   0.7500000   0.0000000   0.7500000), wk =   0.0468750
        k(   21) = (   0.0000000  -1.0000000   0.0000000), wk =   0.0117188
        k(   22) = (  -0.2500000   0.5000000   0.0000000), wk =   0.0937500
        k(   23) = (   0.6250000  -0.3750000   0.8750000), wk =   0.1875000
        k(   24) = (   0.5000000  -0.2500000   0.7500000), wk =   0.0937500
        k(   25) = (   0.7500000  -0.2500000   1.0000000), wk =   0.0937500
        k(   26) = (   0.6250000  -0.1250000   0.8750000), wk =   0.1875000
        k(   27) = (   0.5000000   0.0000000   0.7500000), wk =   0.0937500
        k(   28) = (  -0.2500000  -1.0000000   0.0000000), wk =   0.0468750
        k(   29) = (  -0.5000000  -1.0000000   0.0000000), wk =   0.0234375

     Dense  grid:    88275 G-vectors     FFT dimensions: (  64,  64,  64)

     Smooth grid:    30923 G-vectors     FFT dimensions: (  45,  45,  45)

     Estimated max dynamical RAM per process >     330.55 MB

     Initial potential from superposition of free atoms

     starting charge      17.9975, renormalised to      18.0000
     Starting wfcs are   13 randomized atomic wfcs

     total cpu time spent up to now is        2.1 secs

     Self-consistent Calculation

     iteration #  1     ecut=    80.00 Ry     beta= 0.70
     Davidson diagonalization with overlap
     ethr =  1.00E-02,  avg # of iterations =  1.4

     Threshold (ethr) on eigenvalues was too large:
     Diagonalizing with lowered threshold

     Davidson diagonalization with overlap
     ethr =  3.39E-04,  avg # of iterations =  2.0

     total cpu time spent up to now is        6.4 secs

     total energy              =    -190.70893179 Ry
     estimated scf accuracy    <       0.05117672 Ry

     iteration #  2     ecut=    80.00 Ry     beta= 0.70
     Davidson diagonalization with overlap
     ethr =  2.84E-04,  avg # of iterations =  2.5

     total cpu time spent up to now is        9.4 secs

     total energy              =    -190.70795047 Ry
     estimated scf accuracy    <       0.06214729 Ry

     iteration #  3     ecut=    80.00 Ry     beta= 0.70
     Davidson diagonalization with overlap
     ethr =  2.84E-04,  avg # of iterations =  2.0

     total cpu time spent up to now is       12.0 secs

     total energy              =    -190.72131340 Ry
     estimated scf accuracy    <       0.01697092 Ry

     iteration #  4     ecut=    80.00 Ry     beta= 0.70
     Davidson diagonalization with overlap
     ethr =  9.43E-05,  avg # of iterations =  2.0

     total cpu time spent up to now is       14.6 secs

     total energy              =    -190.72429606 Ry
     estimated scf accuracy    <       0.00016961 Ry

     iteration #  5     ecut=    80.00 Ry     beta= 0.70
     Davidson diagonalization with overlap
     ethr =  9.42E-07,  avg # of iterations =  4.4

     total cpu time spent up to now is       17.7 secs

     total energy              =    -190.72449380 Ry
     estimated scf accuracy    <       0.00012111 Ry

     iteration #  6     ecut=    80.00 Ry     beta= 0.70
     Davidson diagonalization with overlap
     ethr =  6.73E-07,  avg # of iterations =  1.0

     total cpu time spent up to now is       20.0 secs

     total energy              =    -190.72439212 Ry
     estimated scf accuracy    <       0.00018891 Ry

     iteration #  7     ecut=    80.00 Ry     beta= 0.70
     Davidson diagonalization with overlap
     ethr =  6.73E-07,  avg # of iterations =  2.4

     total cpu time spent up to now is       22.6 secs

     total energy              =    -190.72441845 Ry
     estimated scf accuracy    <       0.00000580 Ry

     iteration #  8     ecut=    80.00 Ry     beta= 0.70
     Davidson diagonalization with overlap
     ethr =  3.22E-08,  avg # of iterations =  4.3

     total cpu time spent up to now is       25.5 secs

     total energy              =    -190.72442192 Ry
     estimated scf accuracy    <       0.00000205 Ry

     iteration #  9     ecut=    80.00 Ry     beta= 0.70
     Davidson diagonalization with overlap
     ethr =  1.14E-08,  avg # of iterations =  2.0

     total cpu time spent up to now is       28.3 secs

     total energy              =    -190.72442208 Ry
     estimated scf accuracy    <       0.00000019 Ry

     iteration # 10     ecut=    80.00 Ry     beta= 0.70
     Davidson diagonalization with overlap
     ethr =  1.08E-09,  avg # of iterations =  3.6

     total cpu time spent up to now is       31.1 secs

     total energy              =    -190.72442219 Ry
     estimated scf accuracy    <       0.00000027 Ry

     iteration # 11     ecut=    80.00 Ry     beta= 0.70
     Davidson diagonalization with overlap
     ethr =  1.08E-09,  avg # of iterations =  1.3

     total cpu time spent up to now is       33.5 secs

     total energy              =    -190.72442217 Ry
     estimated scf accuracy    <       0.00000011 Ry

     iteration # 12     ecut=    80.00 Ry     beta= 0.70
     Davidson diagonalization with overlap
     ethr =  6.30E-10,  avg # of iterations =  2.0

     total cpu time spent up to now is       36.0 secs

     total energy              =    -190.72442217 Ry
     estimated scf accuracy    <       0.00000003 Ry

     iteration # 13     ecut=    80.00 Ry     beta= 0.70
     Davidson diagonalization with overlap
     ethr =  1.71E-10,  avg # of iterations =  1.7

     total cpu time spent up to now is       38.4 secs

     total energy              =    -190.72442217 Ry
     estimated scf accuracy    <       0.00000002 Ry

     iteration # 14     ecut=    80.00 Ry     beta= 0.70
     Davidson diagonalization with overlap
     ethr =  9.08E-11,  avg # of iterations =  1.0

     total cpu time spent up to now is       40.7 secs

     total energy              =    -190.72442216 Ry
     estimated scf accuracy    <       0.00000002 Ry

     iteration # 15     ecut=    80.00 Ry     beta= 0.70
     Davidson diagonalization with overlap
     ethr =  8.37E-11,  avg # of iterations =  2.6

     total cpu time spent up to now is       43.3 secs

     End of self-consistent calculation

          k = 0.0000 0.0000 0.0000 (  3839 PWs)   bands (ev):

    -9.0342  -9.0342  -9.0342  -8.9691  -8.9691  -6.6209   5.6225   5.7622
     5.7622

          k =-0.1250 0.1250-0.1250 (  3882 PWs)   bands (ev):

    -9.0439  -9.0313  -9.0313  -8.9691  -8.9691  -6.4547   3.6687   5.5445
     5.5445

          k =-0.2500 0.2500-0.2500 (  3885 PWs)   bands (ev):

    -9.0660  -9.0251  -9.0251  -8.9685  -8.9685  -5.9915   1.6518   5.1337
     5.1337

          k =-0.3750 0.3750-0.3750 (  3879 PWs)   bands (ev):

    -9.0865  -9.0201  -9.0201  -8.9667  -8.9667  -5.3795   0.0419   4.8151
     4.8151

          k = 0.5000-0.5000 0.5000 (  3852 PWs)   bands (ev):

    -9.0945  -9.0185  -9.0185  -8.9655  -8.9655  -5.0399  -0.6395   4.7004
     4.7004

          k = 0.0000 0.2500 0.0000 (  3879 PWs)   bands (ev):

    -9.0500  -9.0286  -9.0286  -8.9713  -8.9674  -6.3991   3.5857   5.1571
     5.1571

          k =-0.1250 0.3750-0.1250 (  3900 PWs)   bands (ev):

    -9.0677  -9.0233  -9.0221  -8.9731  -8.9658  -6.0328   2.0856   4.6509
     4.7013

          k =-0.2500 0.5000-0.2500 (  3911 PWs)   bands (ev):

    -9.0863  -9.0189  -9.0165  -8.9722  -8.9645  -5.4541   0.4810   4.0675
     4.4272

          k = 0.6250-0.3750 0.6250 (  3905 PWs)   bands (ev):

    -9.0966  -9.0168  -9.0146  -8.9691  -8.9648  -4.9709  -0.5102   3.6586
     4.4164

          k = 0.5000-0.2500 0.5000 (  3911 PWs)   bands (ev):

    -9.0936  -9.0170  -9.0163  -8.9677  -8.9668  -5.0909  -0.2821   3.5383
     4.6637

          k = 0.3750-0.1250 0.3750 (  3901 PWs)   bands (ev):

    -9.0784  -9.0215  -9.0197  -8.9705  -8.9667  -5.6622   0.9813   3.7761
     5.0915

          k = 0.2500 0.0000 0.2500 (  3885 PWs)   bands (ev):

    -9.0583  -9.0281  -9.0253  -8.9707  -8.9677  -6.1883   2.5490   4.4953
     5.5010

          k = 0.0000 0.5000 0.0000 (  3928 PWs)   bands (ev):

    -9.0831  -9.0148  -9.0148  -8.9779  -8.9633  -5.7752   1.6174   4.1944
     4.1944

          k =-0.1250 0.6250-0.1250 (  3916 PWs)   bands (ev):

    -9.0980  -9.0097  -9.0082  -8.9798  -8.9617  -5.2830   0.5407   3.5013
     3.8843

          k = 0.7500-0.2500 0.7500 (  3905 PWs)   bands (ev):

    -9.1051  -9.0098  -9.0056  -8.9773  -8.9625  -4.7738  -0.3599   2.7189
     3.8663

          k = 0.6250-0.1250 0.6250 (  3916 PWs)   bands (ev):

    -9.1028  -9.0123  -9.0076  -8.9724  -8.9664  -4.6958  -0.4699   2.3320
     4.1421

          k = 0.5000 0.0000 0.5000 (  3919 PWs)   bands (ev):

    -9.0926  -9.0155  -9.0138  -8.9700  -8.9683  -5.1391   0.2100   2.6104
     4.6282

          k = 0.0000 0.7500 0.0000 (  3940 PWs)   bands (ev):

    -9.1116  -9.0006  -9.0006  -8.9853  -8.9592  -4.9114  -0.0580   3.5099
     3.5099

          k = 0.8750-0.1250 0.8750 (  3925 PWs)   bands (ev):

    -9.1169  -8.9997  -8.9976  -8.9850  -8.9593  -4.5153  -0.6265   2.8587
     3.4290

          k = 0.7500 0.0000 0.7500 (  3907 PWs)   bands (ev):

    -9.1124  -9.0054  -9.0001  -8.9797  -8.9627  -4.4153  -0.6970   2.1603
     3.6614

          k = 0.0000-1.0000 0.0000 (  3892 PWs)   bands (ev):

    -9.1224  -8.9946  -8.9946  -8.9886  -8.9576  -4.3800  -0.8635   3.2694
     3.2694

          k =-0.2500 0.5000 0.0000 (  3905 PWs)   bands (ev):

    -9.0841  -9.0176  -9.0153  -8.9750  -8.9643  -5.6010   1.0922   3.5223
     4.5475

          k = 0.6250-0.3750 0.8750 (  3911 PWs)   bands (ev):

    -9.0971  -9.0148  -9.0098  -8.9740  -8.9645  -5.0380  -0.0078   2.8871
     4.1463

          k = 0.5000-0.2500 0.7500 (  3906 PWs)   bands (ev):

    -9.1020  -9.0143  -9.0078  -8.9721  -8.9655  -4.7322  -0.5355   2.7096
     3.9615

          k = 0.7500-0.2500 1.0000 (  3924 PWs)   bands (ev):

    -9.1079  -9.0069  -9.0020  -8.9810  -8.9613  -4.8137  -0.1777   2.9193
     3.4582

          k = 0.6250-0.1250 0.8750 (  3910 PWs)   bands (ev):

    -9.1099  -9.0090  -8.9999  -8.9781  -8.9636  -4.4730  -0.6090   2.3382
     3.2918

          k = 0.5000 0.0000 0.7500 (  3910 PWs)   bands (ev):

    -9.1054  -9.0121  -9.0028  -8.9749  -8.9658  -4.5950  -0.4562   2.2038
     3.6096

          k =-0.2500-1.0000 0.0000 (  3928 PWs)   bands (ev):

    -9.1171  -9.0018  -8.9965  -8.9834  -8.9604  -4.3572  -0.7878   2.8316
     2.9238

          k =-0.5000-1.0000 0.0000 (  3884 PWs)   bands (ev):

    -9.1110  -9.0098  -8.9975  -8.9777  -8.9647  -4.3340  -0.7033   2.4658
     2.6468

     highest occupied level (ev):     5.7622

!    total energy              =    -190.72442217 Ry
     estimated scf accuracy    <          1.6E-09 Ry

     The total energy is the sum of the following terms:
     one-electron contribution =    -115.17395893 Ry
     hartree contribution      =      72.67886096 Ry
     xc contribution           =     -57.03405846 Ry
     ewald contribution        =     -91.19526574 Ry

     convergence has been achieved in  15 iterations

     Writing all to output data dir ./SCRATCH/gallium arsenide.save/

     init_run     :      1.75s CPU      1.96s WALL (       1 calls)
     electrons    :     33.14s CPU     41.26s WALL (       1 calls)

     Called by init_run:
     wfcinit      :      0.86s CPU      0.87s WALL (       1 calls)
     potinit      :      0.06s CPU      0.06s WALL (       1 calls)
     hinit0       :      0.55s CPU      0.55s WALL (       1 calls)

     Called by electrons:
     c_bands      :     23.27s CPU     23.48s WALL (      16 calls)
     sum_band     :      6.81s CPU     11.01s WALL (      16 calls)
     v_of_rho     :      0.23s CPU      0.23s WALL (      16 calls)
     newd         :      2.78s CPU      6.70s WALL (      16 calls)
     mix_rho      :      0.19s CPU      0.17s WALL (      16 calls)

     Called by c_bands:
     init_us_2    :      0.78s CPU      0.76s WALL (     957 calls)
     init_us_2:cp :      0.78s CPU      0.75s WALL (     957 calls)
     cegterg      :     22.03s CPU     22.21s WALL (     464 calls)

     Called by *egterg:
     cdiaghg      :      0.14s CPU      0.09s WALL (    1483 calls)
     h_psi        :     19.36s CPU     19.45s WALL (    1541 calls)
     s_psi        :      0.83s CPU      0.82s WALL (    1541 calls)
     g_psi        :      0.09s CPU      0.07s WALL (    1048 calls)

     Called by h_psi:
     h_psi:calbec :      1.19s CPU      1.18s WALL (    1541 calls)
     vloc_psi     :     17.28s CPU     17.37s WALL (    1541 calls)
     add_vuspsi   :      0.89s CPU      0.83s WALL (    1541 calls)

     General routines
     calbec       :      1.72s CPU      1.62s WALL (    2005 calls)
     fft          :      0.36s CPU      0.40s WALL (      95 calls)
     ffts         :      0.03s CPU      0.04s WALL (      32 calls)
     fftw         :     18.09s CPU     18.29s WALL (   25796 calls)
     interpolate  :      0.08s CPU      0.10s WALL (      16 calls)


     PWSCF        :     34.98s CPU     43.35s WALL


   This run was terminated on:  13: 6:59  11Jun2024            

=------------------------------------------------------------------------------=
   JOB DONE.
=------------------------------------------------------------------------------=
