
     Program PWSCF v.7.2 starts on 11Jun2024 at 13: 4: 4 

     This program is part of the open-source Quantum ESPRESSO suite
     for quantum simulation of materials; please cite
         "P. Giannozzi et al., J. Phys.:Condens. Matter 21 395502 (2009);
         "P. Giannozzi et al., J. Phys.:Condens. Matter 29 465901 (2017);
         "P. Giannozzi et al., J. Chem. Phys. 152 154105 (2020);
          URL http://www.quantum-espresso.org", 
     in publications or presentations arising from this work. More details at
     http://www.quantum-espresso.org/quote

     Serial version
     8296 MiB available memory on the printing compute node when the environment starts

     Waiting for input...
     Reading input from standard input

     Current dimensions of program PWSCF are:
     Max number of different atomic species (ntypx) = 10
     Max number of k-points (npk) =  40000
     Max angular momentum in pseudopotentials (lmaxx) =  4
     file Ga.pz-dn-rrkjus_psl.0.2.UPF: wavefunction(s)  4S 3D renormalized


     G-vector sticks info
     --------------------
     sticks:   dense  smooth     PW     G-vecs:    dense   smooth      PW
     Sum        2527    1261    367                83323    29603    4645

     Using Slab Decomposition



     bravais-lattice index     =            2
     lattice parameter (alat)  =      10.6829  a.u.
     unit-cell volume          =     304.7951 (a.u.)^3
     number of atoms/cell      =            2
     number of atomic types    =            2
     number of electrons       =        18.00
     number of Kohn-Sham states=            9
     kinetic-energy cutoff     =      80.0000  Ry
     charge density cutoff     =     640.0000  Ry
     scf convergence threshold =      1.0E-08
     mixing beta               =       0.7000
     number of iterations used =            8  plain     mixing
     Exchange-correlation= LDA
                           (   1   1   0   0   0   0   0)

     celldm(1)=  10.682904  celldm(2)=   0.000000  celldm(3)=   0.000000
     celldm(4)=   0.000000  celldm(5)=   0.000000  celldm(6)=   0.000000

     crystal axes: (cart. coord. in units of alat)
               a(1) = (  -0.500000   0.000000   0.500000 )  
               a(2) = (   0.000000   0.500000   0.500000 )  
               a(3) = (  -0.500000   0.500000   0.000000 )  

     reciprocal axes: (cart. coord. in units 2 pi/alat)
               b(1) = ( -1.000000 -1.000000  1.000000 )  
               b(2) = (  1.000000  1.000000  1.000000 )  
               b(3) = ( -1.000000  1.000000 -1.000000 )  


     PseudoPot. # 1 for Ga read from file:
     /home/paolo/LABQSM/pseudo/Ga.pz-dn-rrkjus_psl.0.2.UPF
     MD5 check sum: 337958ae198bc3768054a43796a587a1
     Pseudo is Ultrasoft + core correction, Zval = 13.0
     Generated using "atomic" code by A. Dal Corso  v.5.0.2 svn rev. 9415
     Using radial grid of 1205 points,  6 beta functions with: 
                l(1) =   0
                l(2) =   0
                l(3) =   1
                l(4) =   1
                l(5) =   2
                l(6) =   2
     Q(r) pseudized with 0 coefficients 


     PseudoPot. # 2 for As read from file:
     /home/paolo/LABQSM/pseudo/As.pz-n-rrkjus_psl.0.2.UPF
     MD5 check sum: f80104272e9b817acfe428865afbdb7e
     Pseudo is Ultrasoft + core correction, Zval =  5.0
     Generated using "atomic" code by A. Dal Corso  v.5.0.2 svn rev. 9415
     Using radial grid of 1209 points,  4 beta functions with: 
                l(1) =   0
                l(2) =   0
                l(3) =   1
                l(4) =   1
     Q(r) pseudized with 0 coefficients 


     atomic species   valence    mass     pseudopotential
        Ga            13.00    69.72300     Ga( 1.00)
        As             5.00    74.92200     As( 1.00)

     24 Sym. Ops. (no inversion) found



   Cartesian axes

     site n.     atom                  positions (alat units)
         1           Ga  tau(   1) = (   0.0000000   0.0000000   0.0000000  )
         2           As  tau(   2) = (   0.2500000   0.2500000   0.2500000  )

     number of k points=    29
                       cart. coord. in units 2pi/alat
        k(    1) = (   0.0000000   0.0000000   0.0000000), wk =   0.0039062
        k(    2) = (  -0.1250000   0.1250000  -0.1250000), wk =   0.0312500
        k(    3) = (  -0.2500000   0.2500000  -0.2500000), wk =   0.0312500
        k(    4) = (  -0.3750000   0.3750000  -0.3750000), wk =   0.0312500
        k(    5) = (   0.5000000  -0.5000000   0.5000000), wk =   0.0156250
        k(    6) = (   0.0000000   0.2500000   0.0000000), wk =   0.0234375
        k(    7) = (  -0.1250000   0.3750000  -0.1250000), wk =   0.0937500
        k(    8) = (  -0.2500000   0.5000000  -0.2500000), wk =   0.0937500
        k(    9) = (   0.6250000  -0.3750000   0.6250000), wk =   0.0937500
        k(   10) = (   0.5000000  -0.2500000   0.5000000), wk =   0.0937500
        k(   11) = (   0.3750000  -0.1250000   0.3750000), wk =   0.0937500
        k(   12) = (   0.2500000   0.0000000   0.2500000), wk =   0.0468750
        k(   13) = (   0.0000000   0.5000000   0.0000000), wk =   0.0234375
        k(   14) = (  -0.1250000   0.6250000  -0.1250000), wk =   0.0937500
        k(   15) = (   0.7500000  -0.2500000   0.7500000), wk =   0.0937500
        k(   16) = (   0.6250000  -0.1250000   0.6250000), wk =   0.0937500
        k(   17) = (   0.5000000   0.0000000   0.5000000), wk =   0.0468750
        k(   18) = (   0.0000000   0.7500000   0.0000000), wk =   0.0234375
        k(   19) = (   0.8750000  -0.1250000   0.8750000), wk =   0.0937500
        k(   20) = (   0.7500000   0.0000000   0.7500000), wk =   0.0468750
        k(   21) = (   0.0000000  -1.0000000   0.0000000), wk =   0.0117188
        k(   22) = (  -0.2500000   0.5000000   0.0000000), wk =   0.0937500
        k(   23) = (   0.6250000  -0.3750000   0.8750000), wk =   0.1875000
        k(   24) = (   0.5000000  -0.2500000   0.7500000), wk =   0.0937500
        k(   25) = (   0.7500000  -0.2500000   1.0000000), wk =   0.0937500
        k(   26) = (   0.6250000  -0.1250000   0.8750000), wk =   0.1875000
        k(   27) = (   0.5000000   0.0000000   0.7500000), wk =   0.0937500
        k(   28) = (  -0.2500000  -1.0000000   0.0000000), wk =   0.0468750
        k(   29) = (  -0.5000000  -1.0000000   0.0000000), wk =   0.0234375

     Dense  grid:    83323 G-vectors     FFT dimensions: (  64,  64,  64)

     Smooth grid:    29603 G-vectors     FFT dimensions: (  45,  45,  45)

     Estimated max dynamical RAM per process >     313.23 MB

     Initial potential from superposition of free atoms

     starting charge      17.9975, renormalised to      18.0000
     Starting wfcs are   13 randomized atomic wfcs

     total cpu time spent up to now is        2.0 secs

     Self-consistent Calculation

     iteration #  1     ecut=    80.00 Ry     beta= 0.70
     Davidson diagonalization with overlap
     ethr =  1.00E-02,  avg # of iterations =  1.5

     Threshold (ethr) on eigenvalues was too large:
     Diagonalizing with lowered threshold

     Davidson diagonalization with overlap
     ethr =  3.70E-04,  avg # of iterations =  2.0

     total cpu time spent up to now is        6.3 secs

     total energy              =    -190.71221794 Ry
     estimated scf accuracy    <       0.05464259 Ry

     iteration #  2     ecut=    80.00 Ry     beta= 0.70
     Davidson diagonalization with overlap
     ethr =  3.04E-04,  avg # of iterations =  2.4

     total cpu time spent up to now is        9.1 secs

     total energy              =    -190.71024294 Ry
     estimated scf accuracy    <       0.06994156 Ry

     iteration #  3     ecut=    80.00 Ry     beta= 0.70
     Davidson diagonalization with overlap
     ethr =  3.04E-04,  avg # of iterations =  2.0

     total cpu time spent up to now is       11.7 secs

     total energy              =    -190.72563909 Ry
     estimated scf accuracy    <       0.01746608 Ry

     iteration #  4     ecut=    80.00 Ry     beta= 0.70
     Davidson diagonalization with overlap
     ethr =  9.70E-05,  avg # of iterations =  2.0

     total cpu time spent up to now is       14.2 secs

     total energy              =    -190.72859743 Ry
     estimated scf accuracy    <       0.00013855 Ry

     iteration #  5     ecut=    80.00 Ry     beta= 0.70
     Davidson diagonalization with overlap
     ethr =  7.70E-07,  avg # of iterations =  4.0

     total cpu time spent up to now is       17.1 secs

     total energy              =    -190.72876107 Ry
     estimated scf accuracy    <       0.00010304 Ry

     iteration #  6     ecut=    80.00 Ry     beta= 0.70
     Davidson diagonalization with overlap
     ethr =  5.72E-07,  avg # of iterations =  2.0

     total cpu time spent up to now is       19.6 secs

     total energy              =    -190.72862762 Ry
     estimated scf accuracy    <       0.00024082 Ry

     iteration #  7     ecut=    80.00 Ry     beta= 0.70
     Davidson diagonalization with overlap
     ethr =  5.72E-07,  avg # of iterations =  2.9

     total cpu time spent up to now is       22.2 secs

     total energy              =    -190.72867148 Ry
     estimated scf accuracy    <       0.00000092 Ry

     iteration #  8     ecut=    80.00 Ry     beta= 0.70
     Davidson diagonalization with overlap
     ethr =  5.13E-09,  avg # of iterations =  5.4

     total cpu time spent up to now is       25.7 secs

     total energy              =    -190.72867271 Ry
     estimated scf accuracy    <       0.00000097 Ry

     iteration #  9     ecut=    80.00 Ry     beta= 0.70
     Davidson diagonalization with overlap
     ethr =  5.13E-09,  avg # of iterations =  2.0

     total cpu time spent up to now is       28.3 secs

     total energy              =    -190.72867270 Ry
     estimated scf accuracy    <       0.00000034 Ry

     iteration # 10     ecut=    80.00 Ry     beta= 0.70
     Davidson diagonalization with overlap
     ethr =  1.91E-09,  avg # of iterations =  2.4

     total cpu time spent up to now is       30.8 secs

     End of self-consistent calculation

          k = 0.0000 0.0000 0.0000 (  3695 PWs)   bands (ev):

    -8.4317  -8.4317  -8.4317  -8.3534  -8.3534  -6.3289   6.4626   6.4626
     6.4626

          k =-0.1250 0.1250-0.1250 (  3695 PWs)   bands (ev):

    -8.4448  -8.4282  -8.4282  -8.3535  -8.3535  -6.1471   4.4214   6.2233
     6.2233

          k =-0.2500 0.2500-0.2500 (  3693 PWs)   bands (ev):

    -8.4735  -8.4206  -8.4206  -8.3528  -8.3528  -5.6393   2.2501   5.7781
     5.7781

          k =-0.3750 0.3750-0.3750 (  3687 PWs)   bands (ev):

    -8.4992  -8.4145  -8.4145  -8.3505  -8.3505  -4.9589   0.5053   5.4365
     5.4365

          k = 0.5000-0.5000 0.5000 (  3708 PWs)   bands (ev):

    -8.5091  -8.4126  -8.4126  -8.3490  -8.3490  -4.5711  -0.2464   5.3140
     5.3140

          k = 0.0000 0.2500 0.0000 (  3683 PWs)   bands (ev):

    -8.4523  -8.4249  -8.4249  -8.3563  -8.3513  -6.0866   4.3809   5.7966
     5.7966

          k =-0.1250 0.3750-0.1250 (  3674 PWs)   bands (ev):

    -8.4751  -8.4184  -8.4169  -8.3585  -8.3494  -5.6859   2.7518   5.2691
     5.3045

          k =-0.2500 0.5000-0.2500 (  3676 PWs)   bands (ev):

    -8.4984  -8.4131  -8.4101  -8.3575  -8.3477  -5.0459   1.0030   4.6583
     5.0124

          k = 0.6250-0.3750 0.6250 (  3690 PWs)   bands (ev):

    -8.5112  -8.4106  -8.4078  -8.3536  -8.3481  -4.4974  -0.0918   4.2247
     5.0039

          k = 0.5000-0.2500 0.5000 (  3693 PWs)   bands (ev):

    -8.5076  -8.4108  -8.4098  -8.3517  -8.3507  -4.6351   0.1620   4.0883
     5.2725

          k = 0.3750-0.1250 0.3750 (  3686 PWs)   bands (ev):

    -8.4889  -8.4161  -8.4141  -8.3553  -8.3506  -5.2769   1.5492   4.3234
     5.7357

          k = 0.2500 0.0000 0.2500 (  3681 PWs)   bands (ev):

    -8.4633  -8.4242  -8.4208  -8.3555  -8.3517  -5.8558   3.2445   5.0772
     6.1805

          k = 0.0000 0.5000 0.0000 (  3655 PWs)   bands (ev):

    -8.4938  -8.4079  -8.4079  -8.3648  -8.3463  -5.4049   2.2889   4.7579
     4.7579

          k =-0.1250 0.6250-0.1250 (  3669 PWs)   bands (ev):

    -8.5119  -8.4017  -8.3998  -8.3673  -8.3443  -4.8608   1.1183   4.0176
     4.4266

          k = 0.7500-0.2500 0.7500 (  3685 PWs)   bands (ev):

    -8.5207  -8.4019  -8.3966  -8.3639  -8.3454  -4.2830   0.1157   3.1858
     4.4092

          k = 0.6250-0.1250 0.6250 (  3676 PWs)   bands (ev):

    -8.5181  -8.4051  -8.3990  -8.3578  -8.3502  -4.1903  -0.0119   2.7683
     4.7071

          k = 0.5000 0.0000 0.5000 (  3669 PWs)   bands (ev):

    -8.5061  -8.4089  -8.4067  -8.3547  -8.3526  -4.6951   0.7424   3.0569
     5.2326

          k = 0.0000 0.7500 0.0000 (  3679 PWs)   bands (ev):

    -8.5281  -8.3904  -8.3904  -8.3744  -8.3414  -4.4473   0.4744   4.0253
     4.0253

          k = 0.8750-0.1250 0.8750 (  3680 PWs)   bands (ev):

    -8.5344  -8.3896  -8.3866  -8.3738  -8.3415  -3.9924  -0.1599   3.3190
     3.9394

          k = 0.7500 0.0000 0.7500 (  3703 PWs)   bands (ev):

    -8.5292  -8.3966  -8.3897  -8.3670  -8.3457  -3.8706  -0.2444   2.5624
     4.1894

          k = 0.0000-1.0000 0.0000 (  3692 PWs)   bands (ev):

    -8.5408  -8.3829  -8.3829  -8.3786  -8.3393  -3.8353  -0.4288   3.7684
     3.7684

          k =-0.2500 0.5000 0.0000 (  3662 PWs)   bands (ev):

    -8.4954  -8.4114  -8.4086  -8.3611  -8.3476  -5.2113   1.7022   4.0339
     5.1473

          k = 0.6250-0.3750 0.8750 (  3678 PWs)   bands (ev):

    -8.5113  -8.4080  -8.4019  -8.3597  -8.3478  -4.5816   0.4966   3.3696
     4.7086

          k = 0.5000-0.2500 0.7500 (  3674 PWs)   bands (ev):

    -8.5173  -8.4074  -8.3995  -8.3573  -8.3491  -4.2299  -0.0972   3.1917
     4.5063

          k = 0.7500-0.2500 1.0000 (  3683 PWs)   bands (ev):

    -8.5239  -8.3981  -8.3923  -8.3687  -8.3439  -4.3334   0.3386   3.3877
     3.9620

          k = 0.6250-0.1250 0.8750 (  3686 PWs)   bands (ev):

    -8.5263  -8.4007  -8.3898  -8.3649  -8.3468  -3.9380  -0.1461   2.7600
     3.7817

          k = 0.5000 0.0000 0.7500 (  3671 PWs)   bands (ev):

    -8.5211  -8.4046  -8.3933  -8.3609  -8.3495  -4.0778   0.0224   2.6149
     4.1258

          k =-0.2500-1.0000 0.0000 (  3690 PWs)   bands (ev):

    -8.5346  -8.3918  -8.3858  -8.3715  -8.3429  -3.8060  -0.3432   3.2933
     3.3834

          k =-0.5000-1.0000 0.0000 (  3704 PWs)   bands (ev):

    -8.5275  -8.4016  -8.3871  -8.3642  -8.3482  -3.7761  -0.2464   2.8958
     3.0772

     highest occupied level (ev):     6.4626

!    total energy              =    -190.72867278 Ry
     estimated scf accuracy    <          9.5E-09 Ry

     The total energy is the sum of the following terms:
     one-electron contribution =    -112.22947224 Ry
     hartree contribution      =      71.61986640 Ry
     xc contribution           =     -57.09989588 Ry
     ewald contribution        =     -93.01917106 Ry

     convergence has been achieved in  10 iterations

     Writing all to output data dir ./SCRATCH/gallium arsenide.save/

     init_run     :      1.62s CPU      1.93s WALL (       1 calls)
     electrons    :     23.73s CPU     28.81s WALL (       1 calls)

     Called by init_run:
     wfcinit      :      0.86s CPU      0.86s WALL (       1 calls)
     potinit      :      0.03s CPU      0.06s WALL (       1 calls)
     hinit0       :      0.53s CPU      0.55s WALL (       1 calls)

     Called by electrons:
     c_bands      :     17.08s CPU     17.30s WALL (      11 calls)
     sum_band     :      4.64s CPU      7.22s WALL (      11 calls)
     v_of_rho     :      0.12s CPU      0.16s WALL (      11 calls)
     newd         :      1.88s CPU      4.37s WALL (      11 calls)
     mix_rho      :      0.11s CPU      0.10s WALL (      11 calls)

     Called by c_bands:
     init_us_2    :      0.44s CPU      0.50s WALL (     667 calls)
     init_us_2:cp :      0.44s CPU      0.49s WALL (     667 calls)
     cegterg      :     16.39s CPU     16.47s WALL (     319 calls)

     Called by *egterg:
     cdiaghg      :      0.06s CPU      0.07s WALL (    1119 calls)
     h_psi        :     14.45s CPU     14.58s WALL (    1177 calls)
     s_psi        :      0.69s CPU      0.59s WALL (    1177 calls)
     g_psi        :      0.06s CPU      0.05s WALL (     829 calls)

     Called by h_psi:
     h_psi:calbec :      0.91s CPU      0.85s WALL (    1177 calls)
     vloc_psi     :     12.97s CPU     13.08s WALL (    1177 calls)
     add_vuspsi   :      0.53s CPU      0.59s WALL (    1177 calls)

     General routines
     calbec       :      1.12s CPU      1.13s WALL (    1496 calls)
     fft          :      0.25s CPU      0.27s WALL (      65 calls)
     ffts         :      0.00s CPU      0.02s WALL (      22 calls)
     fftw         :     13.33s CPU     13.53s WALL (   19277 calls)
     interpolate  :      0.05s CPU      0.07s WALL (      11 calls)


     PWSCF        :     25.44s CPU     30.86s WALL


   This run was terminated on:  13: 4:35  11Jun2024            

=------------------------------------------------------------------------------=
   JOB DONE.
=------------------------------------------------------------------------------=
