
     Program PWSCF v.7.2 starts on 11Jun2024 at 13: 5:21 

     This program is part of the open-source Quantum ESPRESSO suite
     for quantum simulation of materials; please cite
         "P. Giannozzi et al., J. Phys.:Condens. Matter 21 395502 (2009);
         "P. Giannozzi et al., J. Phys.:Condens. Matter 29 465901 (2017);
         "P. Giannozzi et al., J. Chem. Phys. 152 154105 (2020);
          URL http://www.quantum-espresso.org", 
     in publications or presentations arising from this work. More details at
     http://www.quantum-espresso.org/quote

     Serial version
     8270 MiB available memory on the printing compute node when the environment starts

     Waiting for input...
     Reading input from standard input

     Current dimensions of program PWSCF are:
     Max number of different atomic species (ntypx) = 10
     Max number of k-points (npk) =  40000
     Max angular momentum in pseudopotentials (lmaxx) =  4
     file Ga.pz-dn-rrkjus_psl.0.2.UPF: wavefunction(s)  4S 3D renormalized


     G-vector sticks info
     --------------------
     sticks:   dense  smooth     PW     G-vecs:    dense   smooth      PW
     Sum        1957     967    301                57313    20179    3383

     Using Slab Decomposition



     bravais-lattice index     =            2
     lattice parameter (alat)  =      10.8966  a.u.
     unit-cell volume          =     323.4510 (a.u.)^3
     number of atoms/cell      =            2
     number of atomic types    =            2
     number of electrons       =        18.00
     number of Kohn-Sham states=            9
     kinetic-energy cutoff     =      60.0000  Ry
     charge density cutoff     =     480.0000  Ry
     scf convergence threshold =      1.0E-08
     mixing beta               =       0.7000
     number of iterations used =            8  plain     mixing
     Exchange-correlation= LDA
                           (   1   1   0   0   0   0   0)

     celldm(1)=  10.896563  celldm(2)=   0.000000  celldm(3)=   0.000000
     celldm(4)=   0.000000  celldm(5)=   0.000000  celldm(6)=   0.000000

     crystal axes: (cart. coord. in units of alat)
               a(1) = (  -0.500000   0.000000   0.500000 )  
               a(2) = (   0.000000   0.500000   0.500000 )  
               a(3) = (  -0.500000   0.500000   0.000000 )  

     reciprocal axes: (cart. coord. in units 2 pi/alat)
               b(1) = ( -1.000000 -1.000000  1.000000 )  
               b(2) = (  1.000000  1.000000  1.000000 )  
               b(3) = ( -1.000000  1.000000 -1.000000 )  


     PseudoPot. # 1 for Ga read from file:
     /home/paolo/LABQSM/pseudo/Ga.pz-dn-rrkjus_psl.0.2.UPF
     MD5 check sum: 337958ae198bc3768054a43796a587a1
     Pseudo is Ultrasoft + core correction, Zval = 13.0
     Generated using "atomic" code by A. Dal Corso  v.5.0.2 svn rev. 9415
     Using radial grid of 1205 points,  6 beta functions with: 
                l(1) =   0
                l(2) =   0
                l(3) =   1
                l(4) =   1
                l(5) =   2
                l(6) =   2
     Q(r) pseudized with 0 coefficients 


     PseudoPot. # 2 for As read from file:
     /home/paolo/LABQSM/pseudo/As.pz-n-rrkjus_psl.0.2.UPF
     MD5 check sum: f80104272e9b817acfe428865afbdb7e
     Pseudo is Ultrasoft + core correction, Zval =  5.0
     Generated using "atomic" code by A. Dal Corso  v.5.0.2 svn rev. 9415
     Using radial grid of 1209 points,  4 beta functions with: 
                l(1) =   0
                l(2) =   0
                l(3) =   1
                l(4) =   1
     Q(r) pseudized with 0 coefficients 


     atomic species   valence    mass     pseudopotential
        Ga            13.00    69.72300     Ga( 1.00)
        As             5.00    74.92200     As( 1.00)

     24 Sym. Ops. (no inversion) found



   Cartesian axes

     site n.     atom                  positions (alat units)
         1           Ga  tau(   1) = (   0.0000000   0.0000000   0.0000000  )
         2           As  tau(   2) = (   0.2500000   0.2500000   0.2500000  )

     number of k points=    29
                       cart. coord. in units 2pi/alat
        k(    1) = (   0.0000000   0.0000000   0.0000000), wk =   0.0039062
        k(    2) = (  -0.1250000   0.1250000  -0.1250000), wk =   0.0312500
        k(    3) = (  -0.2500000   0.2500000  -0.2500000), wk =   0.0312500
        k(    4) = (  -0.3750000   0.3750000  -0.3750000), wk =   0.0312500
        k(    5) = (   0.5000000  -0.5000000   0.5000000), wk =   0.0156250
        k(    6) = (   0.0000000   0.2500000   0.0000000), wk =   0.0234375
        k(    7) = (  -0.1250000   0.3750000  -0.1250000), wk =   0.0937500
        k(    8) = (  -0.2500000   0.5000000  -0.2500000), wk =   0.0937500
        k(    9) = (   0.6250000  -0.3750000   0.6250000), wk =   0.0937500
        k(   10) = (   0.5000000  -0.2500000   0.5000000), wk =   0.0937500
        k(   11) = (   0.3750000  -0.1250000   0.3750000), wk =   0.0937500
        k(   12) = (   0.2500000   0.0000000   0.2500000), wk =   0.0468750
        k(   13) = (   0.0000000   0.5000000   0.0000000), wk =   0.0234375
        k(   14) = (  -0.1250000   0.6250000  -0.1250000), wk =   0.0937500
        k(   15) = (   0.7500000  -0.2500000   0.7500000), wk =   0.0937500
        k(   16) = (   0.6250000  -0.1250000   0.6250000), wk =   0.0937500
        k(   17) = (   0.5000000   0.0000000   0.5000000), wk =   0.0468750
        k(   18) = (   0.0000000   0.7500000   0.0000000), wk =   0.0234375
        k(   19) = (   0.8750000  -0.1250000   0.8750000), wk =   0.0937500
        k(   20) = (   0.7500000   0.0000000   0.7500000), wk =   0.0468750
        k(   21) = (   0.0000000  -1.0000000   0.0000000), wk =   0.0117188
        k(   22) = (  -0.2500000   0.5000000   0.0000000), wk =   0.0937500
        k(   23) = (   0.6250000  -0.3750000   0.8750000), wk =   0.1875000
        k(   24) = (   0.5000000  -0.2500000   0.7500000), wk =   0.0937500
        k(   25) = (   0.7500000  -0.2500000   1.0000000), wk =   0.0937500
        k(   26) = (   0.6250000  -0.1250000   0.8750000), wk =   0.1875000
        k(   27) = (   0.5000000   0.0000000   0.7500000), wk =   0.0937500
        k(   28) = (  -0.2500000  -1.0000000   0.0000000), wk =   0.0468750
        k(   29) = (  -0.5000000  -1.0000000   0.0000000), wk =   0.0234375

     Dense  grid:    57313 G-vectors     FFT dimensions: (  54,  54,  54)

     Smooth grid:    20179 G-vectors     FFT dimensions: (  40,  40,  40)

     Estimated max dynamical RAM per process >     214.63 MB

     Initial potential from superposition of free atoms

     starting charge      17.9975, renormalised to      18.0000
     Starting wfcs are   13 randomized atomic wfcs

     total cpu time spent up to now is        1.5 secs

     Self-consistent Calculation

     iteration #  1     ecut=    60.00 Ry     beta= 0.70
     Davidson diagonalization with overlap
     ethr =  1.00E-02,  avg # of iterations =  1.3

     Threshold (ethr) on eigenvalues was too large:
     Diagonalizing with lowered threshold

     Davidson diagonalization with overlap
     ethr =  3.38E-04,  avg # of iterations =  2.0

     total cpu time spent up to now is        4.3 secs

     total energy              =    -190.70854159 Ry
     estimated scf accuracy    <       0.05132208 Ry

     iteration #  2     ecut=    60.00 Ry     beta= 0.70
     Davidson diagonalization with overlap
     ethr =  2.85E-04,  avg # of iterations =  2.5

     total cpu time spent up to now is        6.1 secs

     total energy              =    -190.70743540 Ry
     estimated scf accuracy    <       0.06319139 Ry

     iteration #  3     ecut=    60.00 Ry     beta= 0.70
     Davidson diagonalization with overlap
     ethr =  2.85E-04,  avg # of iterations =  2.0

     total cpu time spent up to now is        7.8 secs

     total energy              =    -190.72103412 Ry
     estimated scf accuracy    <       0.01681386 Ry

     iteration #  4     ecut=    60.00 Ry     beta= 0.70
     Davidson diagonalization with overlap
     ethr =  9.34E-05,  avg # of iterations =  2.0

     total cpu time spent up to now is        9.4 secs

     total energy              =    -190.72398860 Ry
     estimated scf accuracy    <       0.00016791 Ry

     iteration #  5     ecut=    60.00 Ry     beta= 0.70
     Davidson diagonalization with overlap
     ethr =  9.33E-07,  avg # of iterations =  4.4

     total cpu time spent up to now is       11.2 secs

     total energy              =    -190.72418738 Ry
     estimated scf accuracy    <       0.00011779 Ry

     iteration #  6     ecut=    60.00 Ry     beta= 0.70
     Davidson diagonalization with overlap
     ethr =  6.54E-07,  avg # of iterations =  1.0

     total cpu time spent up to now is       12.7 secs

     total energy              =    -190.72408581 Ry
     estimated scf accuracy    <       0.00018767 Ry

     iteration #  7     ecut=    60.00 Ry     beta= 0.70
     Davidson diagonalization with overlap
     ethr =  6.54E-07,  avg # of iterations =  2.4

     total cpu time spent up to now is       14.3 secs

     total energy              =    -190.72411268 Ry
     estimated scf accuracy    <       0.00000514 Ry

     iteration #  8     ecut=    60.00 Ry     beta= 0.70
     Davidson diagonalization with overlap
     ethr =  2.85E-08,  avg # of iterations =  4.0

     total cpu time spent up to now is       16.1 secs

     total energy              =    -190.72411615 Ry
     estimated scf accuracy    <       0.00000226 Ry

     iteration #  9     ecut=    60.00 Ry     beta= 0.70
     Davidson diagonalization with overlap
     ethr =  1.26E-08,  avg # of iterations =  2.0

     total cpu time spent up to now is       17.8 secs

     total energy              =    -190.72411610 Ry
     estimated scf accuracy    <       0.00000041 Ry

     iteration # 10     ecut=    60.00 Ry     beta= 0.70
     Davidson diagonalization with overlap
     ethr =  2.28E-09,  avg # of iterations =  3.7

     total cpu time spent up to now is       19.5 secs

     total energy              =    -190.72411630 Ry
     estimated scf accuracy    <       0.00000028 Ry

     iteration # 11     ecut=    60.00 Ry     beta= 0.70
     Davidson diagonalization with overlap
     ethr =  1.54E-09,  avg # of iterations =  1.2

     total cpu time spent up to now is       21.0 secs

     total energy              =    -190.72411627 Ry
     estimated scf accuracy    <       0.00000011 Ry

     iteration # 12     ecut=    60.00 Ry     beta= 0.70
     Davidson diagonalization with overlap
     ethr =  5.93E-10,  avg # of iterations =  2.1

     total cpu time spent up to now is       22.6 secs

     End of self-consistent calculation

          k = 0.0000 0.0000 0.0000 (  2637 PWs)   bands (ev):

    -9.0326  -9.0326  -9.0326  -8.9675  -8.9675  -6.6210   5.6226   5.7620
     5.7620

          k =-0.1250 0.1250-0.1250 (  2559 PWs)   bands (ev):

    -9.0424  -9.0297  -9.0297  -8.9676  -8.9676  -6.4548   3.6687   5.5444
     5.5444

          k =-0.2500 0.2500-0.2500 (  2548 PWs)   bands (ev):

    -9.0645  -9.0235  -9.0235  -8.9670  -8.9670  -5.9916   1.6518   5.1336
     5.1336

          k =-0.3750 0.3750-0.3750 (  2542 PWs)   bands (ev):

    -9.0849  -9.0185  -9.0185  -8.9651  -8.9651  -5.3796   0.0419   4.8150
     4.8150

          k = 0.5000-0.5000 0.5000 (  2512 PWs)   bands (ev):

    -9.0930  -9.0169  -9.0169  -8.9639  -8.9639  -5.0401  -0.6394   4.7003
     4.7003

          k = 0.0000 0.2500 0.0000 (  2557 PWs)   bands (ev):

    -9.0484  -9.0270  -9.0270  -8.9698  -8.9658  -6.3992   3.5857   5.1569
     5.1569

          k =-0.1250 0.3750-0.1250 (  2551 PWs)   bands (ev):

    -9.0662  -9.0217  -9.0205  -8.9715  -8.9643  -6.0329   2.0856   4.6508
     4.7012

          k =-0.2500 0.5000-0.2500 (  2550 PWs)   bands (ev):

    -9.0847  -9.0174  -9.0150  -8.9707  -8.9629  -5.4542   0.4811   4.0675
     4.4270

          k = 0.6250-0.3750 0.6250 (  2533 PWs)   bands (ev):

    -9.0951  -9.0152  -9.0130  -8.9675  -8.9632  -4.9710  -0.5101   3.6586
     4.4163

          k = 0.5000-0.2500 0.5000 (  2527 PWs)   bands (ev):

    -9.0920  -9.0154  -9.0147  -8.9661  -8.9652  -5.0910  -0.2820   3.5383
     4.6635

          k = 0.3750-0.1250 0.3750 (  2540 PWs)   bands (ev):

    -9.0769  -9.0199  -9.0182  -8.9689  -8.9652  -5.6623   0.9813   3.7760
     5.0913

          k = 0.2500 0.0000 0.2500 (  2573 PWs)   bands (ev):

    -9.0567  -9.0265  -9.0237  -8.9691  -8.9661  -6.1883   2.5490   4.4952
     5.5008

          k = 0.0000 0.5000 0.0000 (  2557 PWs)   bands (ev):

    -9.0816  -9.0132  -9.0132  -8.9763  -8.9618  -5.7753   1.6175   4.1943
     4.1943

          k =-0.1250 0.6250-0.1250 (  2542 PWs)   bands (ev):

    -9.0964  -9.0081  -9.0066  -8.9783  -8.9601  -5.2831   0.5408   3.5013
     3.8842

          k = 0.7500-0.2500 0.7500 (  2530 PWs)   bands (ev):

    -9.1036  -9.0082  -9.0041  -8.9757  -8.9610  -4.7739  -0.3598   2.7188
     3.8662

          k = 0.6250-0.1250 0.6250 (  2537 PWs)   bands (ev):

    -9.1012  -9.0107  -9.0060  -8.9708  -8.9648  -4.6960  -0.4698   2.3320
     4.1420

          k = 0.5000 0.0000 0.5000 (  2529 PWs)   bands (ev):

    -9.0911  -9.0139  -9.0123  -8.9685  -8.9667  -5.1392   0.2101   2.6103
     4.6281

          k = 0.0000 0.7500 0.0000 (  2518 PWs)   bands (ev):

    -9.1101  -8.9990  -8.9990  -8.9837  -8.9577  -4.9115  -0.0579   3.5098
     3.5098

          k = 0.8750-0.1250 0.8750 (  2528 PWs)   bands (ev):

    -9.1154  -8.9982  -8.9960  -8.9834  -8.9577  -4.5155  -0.6263   2.8586
     3.4290

          k = 0.7500 0.0000 0.7500 (  2554 PWs)   bands (ev):

    -9.1108  -9.0038  -8.9985  -8.9782  -8.9611  -4.4154  -0.6968   2.1603
     3.6613

          k = 0.0000-1.0000 0.0000 (  2498 PWs)   bands (ev):

    -9.1209  -8.9930  -8.9930  -8.9870  -8.9560  -4.3802  -0.8633   3.2693
     3.2693

          k =-0.2500 0.5000 0.0000 (  2546 PWs)   bands (ev):

    -9.0825  -9.0161  -9.0138  -8.9735  -8.9628  -5.6011   1.0923   3.5222
     4.5474

          k = 0.6250-0.3750 0.8750 (  2536 PWs)   bands (ev):

    -9.0955  -9.0133  -9.0083  -8.9724  -8.9629  -5.0381  -0.0077   2.8870
     4.1462

          k = 0.5000-0.2500 0.7500 (  2526 PWs)   bands (ev):

    -9.1004  -9.0127  -9.0062  -8.9705  -8.9639  -4.7323  -0.5354   2.7095
     3.9614

          k = 0.7500-0.2500 1.0000 (  2522 PWs)   bands (ev):

    -9.1064  -9.0053  -9.0004  -8.9794  -8.9597  -4.8139  -0.1775   2.9192
     3.4581

          k = 0.6250-0.1250 0.8750 (  2537 PWs)   bands (ev):

    -9.1084  -9.0074  -8.9983  -8.9766  -8.9620  -4.4732  -0.6088   2.3381
     3.2918

          k = 0.5000 0.0000 0.7500 (  2537 PWs)   bands (ev):

    -9.1039  -9.0106  -9.0012  -8.9733  -8.9642  -4.5951  -0.4560   2.2038
     3.6096

          k =-0.2500-1.0000 0.0000 (  2530 PWs)   bands (ev):

    -9.1155  -9.0003  -8.9949  -8.9818  -8.9588  -4.3574  -0.7876   2.8315
     2.9238

          k =-0.5000-1.0000 0.0000 (  2520 PWs)   bands (ev):

    -9.1095  -9.0082  -8.9959  -8.9761  -8.9631  -4.3342  -0.7031   2.4657
     2.6468

     highest occupied level (ev):     5.7620

!    total energy              =    -190.72411628 Ry
     estimated scf accuracy    <          9.6E-09 Ry

     The total energy is the sum of the following terms:
     one-electron contribution =    -115.17326256 Ry
     hartree contribution      =      72.67849091 Ry
     xc contribution           =     -57.03407888 Ry
     ewald contribution        =     -91.19526574 Ry

     convergence has been achieved in  12 iterations

     Writing all to output data dir ./SCRATCH/gallium arsenide.save/

     init_run     :      1.14s CPU      1.38s WALL (       1 calls)
     electrons    :     17.56s CPU     21.08s WALL (       1 calls)

     Called by init_run:
     wfcinit      :      0.56s CPU      0.57s WALL (       1 calls)
     potinit      :      0.05s CPU      0.04s WALL (       1 calls)
     hinit0       :      0.47s CPU      0.47s WALL (       1 calls)

     Called by electrons:
     c_bands      :     12.55s CPU     12.72s WALL (      13 calls)
     sum_band     :      3.56s CPU      5.35s WALL (      13 calls)
     v_of_rho     :      0.12s CPU      0.10s WALL (      13 calls)
     newd         :      1.30s CPU      3.08s WALL (      13 calls)
     mix_rho      :      0.08s CPU      0.07s WALL (      13 calls)

     Called by c_bands:
     init_us_2    :      0.41s CPU      0.41s WALL (     783 calls)
     init_us_2:cp :      0.41s CPU      0.40s WALL (     783 calls)
     cegterg      :     11.97s CPU     12.04s WALL (     377 calls)

     Called by *egterg:
     cdiaghg      :      0.08s CPU      0.07s WALL (    1240 calls)
     h_psi        :     10.47s CPU     10.57s WALL (    1298 calls)
     s_psi        :      0.44s CPU      0.45s WALL (    1298 calls)
     g_psi        :      0.05s CPU      0.04s WALL (     892 calls)

     Called by h_psi:
     h_psi:calbec :      0.56s CPU      0.63s WALL (    1298 calls)
     vloc_psi     :      9.47s CPU      9.45s WALL (    1298 calls)
     add_vuspsi   :      0.39s CPU      0.46s WALL (    1298 calls)

     General routines
     calbec       :      0.75s CPU      0.85s WALL (    1675 calls)
     fft          :      0.14s CPU      0.16s WALL (      77 calls)
     ffts         :      0.02s CPU      0.02s WALL (      26 calls)
     fftw         :     10.16s CPU      9.92s WALL (   21487 calls)
     interpolate  :      0.05s CPU      0.04s WALL (      13 calls)


     PWSCF        :     18.80s CPU     22.59s WALL


   This run was terminated on:  13: 5:44  11Jun2024            

=------------------------------------------------------------------------------=
   JOB DONE.
=------------------------------------------------------------------------------=
