
     Program PWSCF v.7.2 starts on 11Jun2024 at 13: 5: 5 

     This program is part of the open-source Quantum ESPRESSO suite
     for quantum simulation of materials; please cite
         "P. Giannozzi et al., J. Phys.:Condens. Matter 21 395502 (2009);
         "P. Giannozzi et al., J. Phys.:Condens. Matter 29 465901 (2017);
         "P. Giannozzi et al., J. Chem. Phys. 152 154105 (2020);
          URL http://www.quantum-espresso.org", 
     in publications or presentations arising from this work. More details at
     http://www.quantum-espresso.org/quote

     Serial version
     8271 MiB available memory on the printing compute node when the environment starts

     Waiting for input...
     Reading input from standard input

     Current dimensions of program PWSCF are:
     Max number of different atomic species (ntypx) = 10
     Max number of k-points (npk) =  40000
     Max angular momentum in pseudopotentials (lmaxx) =  4
     file Ga.pz-dn-rrkjus_psl.0.2.UPF: wavefunction(s)  4S 3D renormalized


     G-vector sticks info
     --------------------
     sticks:   dense  smooth     PW     G-vecs:    dense   smooth      PW
     Sum        1639     823    253                43799    15473    2637

     Using Slab Decomposition



     bravais-lattice index     =            2
     lattice parameter (alat)  =      10.8966  a.u.
     unit-cell volume          =     323.4510 (a.u.)^3
     number of atoms/cell      =            2
     number of atomic types    =            2
     number of electrons       =        18.00
     number of Kohn-Sham states=            9
     kinetic-energy cutoff     =      50.0000  Ry
     charge density cutoff     =     400.0000  Ry
     scf convergence threshold =      1.0E-08
     mixing beta               =       0.7000
     number of iterations used =            8  plain     mixing
     Exchange-correlation= LDA
                           (   1   1   0   0   0   0   0)

     celldm(1)=  10.896563  celldm(2)=   0.000000  celldm(3)=   0.000000
     celldm(4)=   0.000000  celldm(5)=   0.000000  celldm(6)=   0.000000

     crystal axes: (cart. coord. in units of alat)
               a(1) = (  -0.500000   0.000000   0.500000 )  
               a(2) = (   0.000000   0.500000   0.500000 )  
               a(3) = (  -0.500000   0.500000   0.000000 )  

     reciprocal axes: (cart. coord. in units 2 pi/alat)
               b(1) = ( -1.000000 -1.000000  1.000000 )  
               b(2) = (  1.000000  1.000000  1.000000 )  
               b(3) = ( -1.000000  1.000000 -1.000000 )  


     PseudoPot. # 1 for Ga read from file:
     /home/paolo/LABQSM/pseudo/Ga.pz-dn-rrkjus_psl.0.2.UPF
     MD5 check sum: 337958ae198bc3768054a43796a587a1
     Pseudo is Ultrasoft + core correction, Zval = 13.0
     Generated using "atomic" code by A. Dal Corso  v.5.0.2 svn rev. 9415
     Using radial grid of 1205 points,  6 beta functions with: 
                l(1) =   0
                l(2) =   0
                l(3) =   1
                l(4) =   1
                l(5) =   2
                l(6) =   2
     Q(r) pseudized with 0 coefficients 


     PseudoPot. # 2 for As read from file:
     /home/paolo/LABQSM/pseudo/As.pz-n-rrkjus_psl.0.2.UPF
     MD5 check sum: f80104272e9b817acfe428865afbdb7e
     Pseudo is Ultrasoft + core correction, Zval =  5.0
     Generated using "atomic" code by A. Dal Corso  v.5.0.2 svn rev. 9415
     Using radial grid of 1209 points,  4 beta functions with: 
                l(1) =   0
                l(2) =   0
                l(3) =   1
                l(4) =   1
     Q(r) pseudized with 0 coefficients 


     atomic species   valence    mass     pseudopotential
        Ga            13.00    69.72300     Ga( 1.00)
        As             5.00    74.92200     As( 1.00)

     24 Sym. Ops. (no inversion) found



   Cartesian axes

     site n.     atom                  positions (alat units)
         1           Ga  tau(   1) = (   0.0000000   0.0000000   0.0000000  )
         2           As  tau(   2) = (   0.2500000   0.2500000   0.2500000  )

     number of k points=    29
                       cart. coord. in units 2pi/alat
        k(    1) = (   0.0000000   0.0000000   0.0000000), wk =   0.0039062
        k(    2) = (  -0.1250000   0.1250000  -0.1250000), wk =   0.0312500
        k(    3) = (  -0.2500000   0.2500000  -0.2500000), wk =   0.0312500
        k(    4) = (  -0.3750000   0.3750000  -0.3750000), wk =   0.0312500
        k(    5) = (   0.5000000  -0.5000000   0.5000000), wk =   0.0156250
        k(    6) = (   0.0000000   0.2500000   0.0000000), wk =   0.0234375
        k(    7) = (  -0.1250000   0.3750000  -0.1250000), wk =   0.0937500
        k(    8) = (  -0.2500000   0.5000000  -0.2500000), wk =   0.0937500
        k(    9) = (   0.6250000  -0.3750000   0.6250000), wk =   0.0937500
        k(   10) = (   0.5000000  -0.2500000   0.5000000), wk =   0.0937500
        k(   11) = (   0.3750000  -0.1250000   0.3750000), wk =   0.0937500
        k(   12) = (   0.2500000   0.0000000   0.2500000), wk =   0.0468750
        k(   13) = (   0.0000000   0.5000000   0.0000000), wk =   0.0234375
        k(   14) = (  -0.1250000   0.6250000  -0.1250000), wk =   0.0937500
        k(   15) = (   0.7500000  -0.2500000   0.7500000), wk =   0.0937500
        k(   16) = (   0.6250000  -0.1250000   0.6250000), wk =   0.0937500
        k(   17) = (   0.5000000   0.0000000   0.5000000), wk =   0.0468750
        k(   18) = (   0.0000000   0.7500000   0.0000000), wk =   0.0234375
        k(   19) = (   0.8750000  -0.1250000   0.8750000), wk =   0.0937500
        k(   20) = (   0.7500000   0.0000000   0.7500000), wk =   0.0468750
        k(   21) = (   0.0000000  -1.0000000   0.0000000), wk =   0.0117188
        k(   22) = (  -0.2500000   0.5000000   0.0000000), wk =   0.0937500
        k(   23) = (   0.6250000  -0.3750000   0.8750000), wk =   0.1875000
        k(   24) = (   0.5000000  -0.2500000   0.7500000), wk =   0.0937500
        k(   25) = (   0.7500000  -0.2500000   1.0000000), wk =   0.0937500
        k(   26) = (   0.6250000  -0.1250000   0.8750000), wk =   0.1875000
        k(   27) = (   0.5000000   0.0000000   0.7500000), wk =   0.0937500
        k(   28) = (  -0.2500000  -1.0000000   0.0000000), wk =   0.0468750
        k(   29) = (  -0.5000000  -1.0000000   0.0000000), wk =   0.0234375

     Dense  grid:    43799 G-vectors     FFT dimensions: (  50,  50,  50)

     Smooth grid:    15473 G-vectors     FFT dimensions: (  36,  36,  36)

     Estimated max dynamical RAM per process >     164.82 MB

     Initial potential from superposition of free atoms

     starting charge      17.9975, renormalised to      18.0000
     Starting wfcs are   13 randomized atomic wfcs

     total cpu time spent up to now is        1.2 secs

     Self-consistent Calculation

     iteration #  1     ecut=    50.00 Ry     beta= 0.70
     Davidson diagonalization with overlap
     ethr =  1.00E-02,  avg # of iterations =  1.4

     Threshold (ethr) on eigenvalues was too large:
     Diagonalizing with lowered threshold

     Davidson diagonalization with overlap
     ethr =  3.38E-04,  avg # of iterations =  2.0

     total cpu time spent up to now is        3.1 secs

     total energy              =    -190.70835256 Ry
     estimated scf accuracy    <       0.05135590 Ry

     iteration #  2     ecut=    50.00 Ry     beta= 0.70
     Davidson diagonalization with overlap
     ethr =  2.85E-04,  avg # of iterations =  2.5

     total cpu time spent up to now is        4.4 secs

     total energy              =    -190.70719703 Ry
     estimated scf accuracy    <       0.06360342 Ry

     iteration #  3     ecut=    50.00 Ry     beta= 0.70
     Davidson diagonalization with overlap
     ethr =  2.85E-04,  avg # of iterations =  2.0

     total cpu time spent up to now is        5.5 secs

     total energy              =    -190.72088691 Ry
     estimated scf accuracy    <       0.01673687 Ry

     iteration #  4     ecut=    50.00 Ry     beta= 0.70
     Davidson diagonalization with overlap
     ethr =  9.30E-05,  avg # of iterations =  2.0

     total cpu time spent up to now is        6.6 secs

     total energy              =    -190.72383008 Ry
     estimated scf accuracy    <       0.00016880 Ry

     iteration #  5     ecut=    50.00 Ry     beta= 0.70
     Davidson diagonalization with overlap
     ethr =  9.38E-07,  avg # of iterations =  4.4

     total cpu time spent up to now is        7.9 secs

     total energy              =    -190.72402836 Ry
     estimated scf accuracy    <       0.00011686 Ry

     iteration #  6     ecut=    50.00 Ry     beta= 0.70
     Davidson diagonalization with overlap
     ethr =  6.49E-07,  avg # of iterations =  1.0

     total cpu time spent up to now is        8.9 secs

     total energy              =    -190.72392883 Ry
     estimated scf accuracy    <       0.00018398 Ry

     iteration #  7     ecut=    50.00 Ry     beta= 0.70
     Davidson diagonalization with overlap
     ethr =  6.49E-07,  avg # of iterations =  2.4

     total cpu time spent up to now is       10.0 secs

     total energy              =    -190.72395437 Ry
     estimated scf accuracy    <       0.00000537 Ry

     iteration #  8     ecut=    50.00 Ry     beta= 0.70
     Davidson diagonalization with overlap
     ethr =  2.98E-08,  avg # of iterations =  4.0

     total cpu time spent up to now is       11.3 secs

     total energy              =    -190.72395768 Ry
     estimated scf accuracy    <       0.00000227 Ry

     iteration #  9     ecut=    50.00 Ry     beta= 0.70
     Davidson diagonalization with overlap
     ethr =  1.26E-08,  avg # of iterations =  2.2

     total cpu time spent up to now is       12.4 secs

     total energy              =    -190.72395800 Ry
     estimated scf accuracy    <       0.00000006 Ry

     iteration # 10     ecut=    50.00 Ry     beta= 0.70
     Davidson diagonalization with overlap
     ethr =  3.18E-10,  avg # of iterations =  4.6

     total cpu time spent up to now is       13.9 secs

     total energy              =    -190.72395806 Ry
     estimated scf accuracy    <       0.00000055 Ry

     iteration # 11     ecut=    50.00 Ry     beta= 0.70
     Davidson diagonalization with overlap
     ethr =  3.18E-10,  avg # of iterations =  2.7

     total cpu time spent up to now is       15.0 secs

     total energy              =    -190.72395800 Ry
     estimated scf accuracy    <       0.00000017 Ry

     iteration # 12     ecut=    50.00 Ry     beta= 0.70
     Davidson diagonalization with overlap
     ethr =  3.18E-10,  avg # of iterations =  3.0

     total cpu time spent up to now is       16.3 secs

     End of self-consistent calculation

          k = 0.0000 0.0000 0.0000 (  1917 PWs)   bands (ev):

    -9.0330  -9.0330  -9.0330  -8.9679  -8.9679  -6.6209   5.6227   5.7621
     5.7621

          k =-0.1250 0.1250-0.1250 (  1934 PWs)   bands (ev):

    -9.0428  -9.0302  -9.0302  -8.9680  -8.9680  -6.4547   3.6688   5.5445
     5.5445

          k =-0.2500 0.2500-0.2500 (  1934 PWs)   bands (ev):

    -9.0649  -9.0239  -9.0239  -8.9674  -8.9674  -5.9915   1.6519   5.1337
     5.1337

          k =-0.3750 0.3750-0.3750 (  1922 PWs)   bands (ev):

    -9.0853  -9.0190  -9.0190  -8.9656  -8.9656  -5.3795   0.0420   4.8151
     4.8151

          k = 0.5000-0.5000 0.5000 (  1916 PWs)   bands (ev):

    -9.0933  -9.0173  -9.0173  -8.9644  -8.9644  -5.0400  -0.6394   4.7004
     4.7004

          k = 0.0000 0.2500 0.0000 (  1937 PWs)   bands (ev):

    -9.0488  -9.0274  -9.0274  -8.9702  -8.9663  -6.3992   3.5858   5.1570
     5.1570

          k =-0.1250 0.3750-0.1250 (  1940 PWs)   bands (ev):

    -9.0666  -9.0222  -9.0210  -8.9719  -8.9647  -6.0328   2.0857   4.6509
     4.7013

          k =-0.2500 0.5000-0.2500 (  1952 PWs)   bands (ev):

    -9.0852  -9.0178  -9.0154  -8.9711  -8.9634  -5.4541   0.4812   4.0675
     4.4271

          k = 0.6250-0.3750 0.6250 (  1937 PWs)   bands (ev):

    -9.0954  -9.0157  -9.0134  -8.9680  -8.9637  -4.9709  -0.5101   3.6586
     4.4164

          k = 0.5000-0.2500 0.5000 (  1930 PWs)   bands (ev):

    -9.0924  -9.0159  -9.0151  -8.9665  -8.9657  -5.0909  -0.2819   3.5383
     4.6636

          k = 0.3750-0.1250 0.3750 (  1930 PWs)   bands (ev):

    -9.0773  -9.0203  -9.0186  -8.9694  -8.9656  -5.6622   0.9814   3.7761
     5.0914

          k = 0.2500 0.0000 0.2500 (  1943 PWs)   bands (ev):

    -9.0572  -9.0269  -9.0241  -8.9696  -8.9666  -6.1883   2.5491   4.4953
     5.5009

          k = 0.0000 0.5000 0.0000 (  1964 PWs)   bands (ev):

    -9.0821  -9.0137  -9.0137  -8.9768  -8.9622  -5.7752   1.6175   4.1944
     4.1944

          k =-0.1250 0.6250-0.1250 (  1937 PWs)   bands (ev):

    -9.0969  -9.0085  -9.0071  -8.9787  -8.9605  -5.2830   0.5409   3.5013
     3.8843

          k = 0.7500-0.2500 0.7500 (  1923 PWs)   bands (ev):

    -9.1040  -9.0086  -9.0045  -8.9761  -8.9614  -4.7739  -0.3597   2.7189
     3.8663

          k = 0.6250-0.1250 0.6250 (  1931 PWs)   bands (ev):

    -9.1016  -9.0111  -9.0064  -8.9713  -8.9653  -4.6959  -0.4697   2.3320
     4.1421

          k = 0.5000 0.0000 0.5000 (  1923 PWs)   bands (ev):

    -9.0915  -9.0143  -9.0127  -8.9689  -8.9671  -5.1391   0.2101   2.6103
     4.6282

          k = 0.0000 0.7500 0.0000 (  1952 PWs)   bands (ev):

    -9.1105  -8.9995  -8.9995  -8.9842  -8.9581  -4.9115  -0.0578   3.5099
     3.5099

          k = 0.8750-0.1250 0.8750 (  1935 PWs)   bands (ev):

    -9.1158  -8.9986  -8.9964  -8.9839  -8.9582  -4.5154  -0.6262   2.8587
     3.4290

          k = 0.7500 0.0000 0.7500 (  1926 PWs)   bands (ev):

    -9.1112  -9.0043  -8.9989  -8.9786  -8.9616  -4.4154  -0.6967   2.1603
     3.6614

          k = 0.0000-1.0000 0.0000 (  1964 PWs)   bands (ev):

    -9.1213  -8.9935  -8.9935  -8.9875  -8.9565  -4.3802  -0.8632   3.2694
     3.2694

          k =-0.2500 0.5000 0.0000 (  1936 PWs)   bands (ev):

    -9.0830  -9.0165  -9.0142  -8.9739  -8.9632  -5.6010   1.0924   3.5223
     4.5475

          k = 0.6250-0.3750 0.8750 (  1931 PWs)   bands (ev):

    -9.0959  -9.0137  -9.0087  -8.9729  -8.9634  -5.0380  -0.0076   2.8871
     4.1463

          k = 0.5000-0.2500 0.7500 (  1918 PWs)   bands (ev):

    -9.1008  -9.0131  -9.0066  -8.9709  -8.9643  -4.7322  -0.5353   2.7096
     3.9615

          k = 0.7500-0.2500 1.0000 (  1936 PWs)   bands (ev):

    -9.1068  -9.0057  -9.0008  -8.9799  -8.9601  -4.8138  -0.1775   2.9193
     3.4582

          k = 0.6250-0.1250 0.8750 (  1923 PWs)   bands (ev):

    -9.1087  -9.0078  -8.9987  -8.9770  -8.9624  -4.4731  -0.6087   2.3382
     3.2918

          k = 0.5000 0.0000 0.7500 (  1926 PWs)   bands (ev):

    -9.1043  -9.0110  -9.0016  -8.9737  -8.9646  -4.5951  -0.4560   2.2038
     3.6096

          k =-0.2500-1.0000 0.0000 (  1928 PWs)   bands (ev):

    -9.1160  -9.0007  -8.9953  -8.9822  -8.9593  -4.3573  -0.7875   2.8316
     2.9238

          k =-0.5000-1.0000 0.0000 (  1912 PWs)   bands (ev):

    -9.1098  -9.0086  -8.9963  -8.9765  -8.9635  -4.3341  -0.7030   2.4658
     2.6468

     highest occupied level (ev):     5.7621

!    total energy              =    -190.72395803 Ry
     estimated scf accuracy    <          1.5E-09 Ry

     The total energy is the sum of the following terms:
     one-electron contribution =    -115.17363557 Ry
     hartree contribution      =      72.67904389 Ry
     xc contribution           =     -57.03410059 Ry
     ewald contribution        =     -91.19526574 Ry

     convergence has been achieved in  12 iterations

     Writing all to output data dir ./SCRATCH/gallium arsenide.save/

     init_run     :      0.97s CPU      1.08s WALL (       1 calls)
     electrons    :     12.44s CPU     15.14s WALL (       1 calls)

     Called by init_run:
     wfcinit      :      0.39s CPU      0.38s WALL (       1 calls)
     potinit      :      0.03s CPU      0.03s WALL (       1 calls)
     hinit0       :      0.41s CPU      0.43s WALL (       1 calls)

     Called by electrons:
     c_bands      :      8.81s CPU      9.00s WALL (      13 calls)
     sum_band     :      2.48s CPU      3.84s WALL (      13 calls)
     v_of_rho     :      0.12s CPU      0.08s WALL (      13 calls)
     newd         :      1.11s CPU      2.35s WALL (      13 calls)
     mix_rho      :      0.03s CPU      0.05s WALL (      13 calls)

     Called by c_bands:
     init_us_2    :      0.25s CPU      0.31s WALL (     783 calls)
     init_us_2:cp :      0.25s CPU      0.30s WALL (     783 calls)
     cegterg      :      8.47s CPU      8.47s WALL (     377 calls)

     Called by *egterg:
     cdiaghg      :      0.06s CPU      0.08s WALL (    1339 calls)
     h_psi        :      7.25s CPU      7.13s WALL (    1397 calls)
     s_psi        :      0.34s CPU      0.37s WALL (    1397 calls)
     g_psi        :      0.02s CPU      0.03s WALL (     991 calls)

     Called by h_psi:
     h_psi:calbec :      0.55s CPU      0.50s WALL (    1397 calls)
     vloc_psi     :      6.27s CPU      6.22s WALL (    1397 calls)
     add_vuspsi   :      0.39s CPU      0.37s WALL (    1397 calls)

     General routines
     calbec       :      0.64s CPU      0.67s WALL (    1774 calls)
     fft          :      0.11s CPU      0.13s WALL (      77 calls)
     ffts         :      0.03s CPU      0.01s WALL (      26 calls)
     fftw         :      6.45s CPU      6.28s WALL (   22641 calls)
     interpolate  :      0.02s CPU      0.03s WALL (      13 calls)


     PWSCF        :     13.50s CPU     16.34s WALL


   This run was terminated on:  13: 5:21  11Jun2024            

=------------------------------------------------------------------------------=
   JOB DONE.
=------------------------------------------------------------------------------=
