
     Program PWSCF v.7.2 starts on 11Jun2024 at 13: 5:44 

     This program is part of the open-source Quantum ESPRESSO suite
     for quantum simulation of materials; please cite
         "P. Giannozzi et al., J. Phys.:Condens. Matter 21 395502 (2009);
         "P. Giannozzi et al., J. Phys.:Condens. Matter 29 465901 (2017);
         "P. Giannozzi et al., J. Chem. Phys. 152 154105 (2020);
          URL http://www.quantum-espresso.org", 
     in publications or presentations arising from this work. More details at
     http://www.quantum-espresso.org/quote

     Serial version
     8280 MiB available memory on the printing compute node when the environment starts

     Waiting for input...
     Reading input from standard input

     Current dimensions of program PWSCF are:
     Max number of different atomic species (ntypx) = 10
     Max number of k-points (npk) =  40000
     Max angular momentum in pseudopotentials (lmaxx) =  4
     file Ga.pz-dn-rrkjus_psl.0.2.UPF: wavefunction(s)  4S 3D renormalized


     G-vector sticks info
     --------------------
     sticks:   dense  smooth     PW     G-vecs:    dense   smooth      PW
     Sum        2287    1147    349                72377    25605    4111

     Using Slab Decomposition



     bravais-lattice index     =            2
     lattice parameter (alat)  =      10.8966  a.u.
     unit-cell volume          =     323.4510 (a.u.)^3
     number of atoms/cell      =            2
     number of atomic types    =            2
     number of electrons       =        18.00
     number of Kohn-Sham states=            9
     kinetic-energy cutoff     =      70.0000  Ry
     charge density cutoff     =     560.0000  Ry
     scf convergence threshold =      1.0E-08
     mixing beta               =       0.7000
     number of iterations used =            8  plain     mixing
     Exchange-correlation= LDA
                           (   1   1   0   0   0   0   0)

     celldm(1)=  10.896563  celldm(2)=   0.000000  celldm(3)=   0.000000
     celldm(4)=   0.000000  celldm(5)=   0.000000  celldm(6)=   0.000000

     crystal axes: (cart. coord. in units of alat)
               a(1) = (  -0.500000   0.000000   0.500000 )  
               a(2) = (   0.000000   0.500000   0.500000 )  
               a(3) = (  -0.500000   0.500000   0.000000 )  

     reciprocal axes: (cart. coord. in units 2 pi/alat)
               b(1) = ( -1.000000 -1.000000  1.000000 )  
               b(2) = (  1.000000  1.000000  1.000000 )  
               b(3) = ( -1.000000  1.000000 -1.000000 )  


     PseudoPot. # 1 for Ga read from file:
     /home/paolo/LABQSM/pseudo/Ga.pz-dn-rrkjus_psl.0.2.UPF
     MD5 check sum: 337958ae198bc3768054a43796a587a1
     Pseudo is Ultrasoft + core correction, Zval = 13.0
     Generated using "atomic" code by A. Dal Corso  v.5.0.2 svn rev. 9415
     Using radial grid of 1205 points,  6 beta functions with: 
                l(1) =   0
                l(2) =   0
                l(3) =   1
                l(4) =   1
                l(5) =   2
                l(6) =   2
     Q(r) pseudized with 0 coefficients 


     PseudoPot. # 2 for As read from file:
     /home/paolo/LABQSM/pseudo/As.pz-n-rrkjus_psl.0.2.UPF
     MD5 check sum: f80104272e9b817acfe428865afbdb7e
     Pseudo is Ultrasoft + core correction, Zval =  5.0
     Generated using "atomic" code by A. Dal Corso  v.5.0.2 svn rev. 9415
     Using radial grid of 1209 points,  4 beta functions with: 
                l(1) =   0
                l(2) =   0
                l(3) =   1
                l(4) =   1
     Q(r) pseudized with 0 coefficients 


     atomic species   valence    mass     pseudopotential
        Ga            13.00    69.72300     Ga( 1.00)
        As             5.00    74.92200     As( 1.00)

     24 Sym. Ops. (no inversion) found



   Cartesian axes

     site n.     atom                  positions (alat units)
         1           Ga  tau(   1) = (   0.0000000   0.0000000   0.0000000  )
         2           As  tau(   2) = (   0.2500000   0.2500000   0.2500000  )

     number of k points=    29
                       cart. coord. in units 2pi/alat
        k(    1) = (   0.0000000   0.0000000   0.0000000), wk =   0.0039062
        k(    2) = (  -0.1250000   0.1250000  -0.1250000), wk =   0.0312500
        k(    3) = (  -0.2500000   0.2500000  -0.2500000), wk =   0.0312500
        k(    4) = (  -0.3750000   0.3750000  -0.3750000), wk =   0.0312500
        k(    5) = (   0.5000000  -0.5000000   0.5000000), wk =   0.0156250
        k(    6) = (   0.0000000   0.2500000   0.0000000), wk =   0.0234375
        k(    7) = (  -0.1250000   0.3750000  -0.1250000), wk =   0.0937500
        k(    8) = (  -0.2500000   0.5000000  -0.2500000), wk =   0.0937500
        k(    9) = (   0.6250000  -0.3750000   0.6250000), wk =   0.0937500
        k(   10) = (   0.5000000  -0.2500000   0.5000000), wk =   0.0937500
        k(   11) = (   0.3750000  -0.1250000   0.3750000), wk =   0.0937500
        k(   12) = (   0.2500000   0.0000000   0.2500000), wk =   0.0468750
        k(   13) = (   0.0000000   0.5000000   0.0000000), wk =   0.0234375
        k(   14) = (  -0.1250000   0.6250000  -0.1250000), wk =   0.0937500
        k(   15) = (   0.7500000  -0.2500000   0.7500000), wk =   0.0937500
        k(   16) = (   0.6250000  -0.1250000   0.6250000), wk =   0.0937500
        k(   17) = (   0.5000000   0.0000000   0.5000000), wk =   0.0468750
        k(   18) = (   0.0000000   0.7500000   0.0000000), wk =   0.0234375
        k(   19) = (   0.8750000  -0.1250000   0.8750000), wk =   0.0937500
        k(   20) = (   0.7500000   0.0000000   0.7500000), wk =   0.0468750
        k(   21) = (   0.0000000  -1.0000000   0.0000000), wk =   0.0117188
        k(   22) = (  -0.2500000   0.5000000   0.0000000), wk =   0.0937500
        k(   23) = (   0.6250000  -0.3750000   0.8750000), wk =   0.1875000
        k(   24) = (   0.5000000  -0.2500000   0.7500000), wk =   0.0937500
        k(   25) = (   0.7500000  -0.2500000   1.0000000), wk =   0.0937500
        k(   26) = (   0.6250000  -0.1250000   0.8750000), wk =   0.1875000
        k(   27) = (   0.5000000   0.0000000   0.7500000), wk =   0.0937500
        k(   28) = (  -0.2500000  -1.0000000   0.0000000), wk =   0.0468750
        k(   29) = (  -0.5000000  -1.0000000   0.0000000), wk =   0.0234375

     Dense  grid:    72377 G-vectors     FFT dimensions: (  60,  60,  60)

     Smooth grid:    25605 G-vectors     FFT dimensions: (  45,  45,  45)

     Estimated max dynamical RAM per process >     271.54 MB

     Initial potential from superposition of free atoms

     starting charge      17.9975, renormalised to      18.0000
     Starting wfcs are   13 randomized atomic wfcs

     total cpu time spent up to now is        1.8 secs

     Self-consistent Calculation

     iteration #  1     ecut=    70.00 Ry     beta= 0.70
     Davidson diagonalization with overlap
     ethr =  1.00E-02,  avg # of iterations =  1.4

     Threshold (ethr) on eigenvalues was too large:
     Diagonalizing with lowered threshold

     Davidson diagonalization with overlap
     ethr =  3.40E-04,  avg # of iterations =  2.0

     total cpu time spent up to now is        5.7 secs

     total energy              =    -190.70873169 Ry
     estimated scf accuracy    <       0.05133466 Ry

     iteration #  2     ecut=    70.00 Ry     beta= 0.70
     Davidson diagonalization with overlap
     ethr =  2.85E-04,  avg # of iterations =  2.6

     total cpu time spent up to now is        8.4 secs

     total energy              =    -190.70766909 Ry
     estimated scf accuracy    <       0.06305269 Ry

     iteration #  3     ecut=    70.00 Ry     beta= 0.70
     Davidson diagonalization with overlap
     ethr =  2.85E-04,  avg # of iterations =  2.0

     total cpu time spent up to now is       10.7 secs

     total energy              =    -190.72122555 Ry
     estimated scf accuracy    <       0.01685832 Ry

     iteration #  4     ecut=    70.00 Ry     beta= 0.70
     Davidson diagonalization with overlap
     ethr =  9.37E-05,  avg # of iterations =  2.0

     total cpu time spent up to now is       13.1 secs

     total energy              =    -190.72419330 Ry
     estimated scf accuracy    <       0.00017039 Ry

     iteration #  5     ecut=    70.00 Ry     beta= 0.70
     Davidson diagonalization with overlap
     ethr =  9.47E-07,  avg # of iterations =  4.4

     total cpu time spent up to now is       15.7 secs

     total energy              =    -190.72439486 Ry
     estimated scf accuracy    <       0.00011939 Ry

     iteration #  6     ecut=    70.00 Ry     beta= 0.70
     Davidson diagonalization with overlap
     ethr =  6.63E-07,  avg # of iterations =  1.0

     total cpu time spent up to now is       17.8 secs

     total energy              =    -190.72429105 Ry
     estimated scf accuracy    <       0.00019176 Ry

     iteration #  7     ecut=    70.00 Ry     beta= 0.70
     Davidson diagonalization with overlap
     ethr =  6.63E-07,  avg # of iterations =  2.4

     total cpu time spent up to now is       20.1 secs

     total energy              =    -190.72431858 Ry
     estimated scf accuracy    <       0.00000520 Ry

     iteration #  8     ecut=    70.00 Ry     beta= 0.70
     Davidson diagonalization with overlap
     ethr =  2.89E-08,  avg # of iterations =  4.1

     total cpu time spent up to now is       22.7 secs

     total energy              =    -190.72432226 Ry
     estimated scf accuracy    <       0.00000243 Ry

     iteration #  9     ecut=    70.00 Ry     beta= 0.70
     Davidson diagonalization with overlap
     ethr =  1.35E-08,  avg # of iterations =  2.1

     total cpu time spent up to now is       25.1 secs

     total energy              =    -190.72432203 Ry
     estimated scf accuracy    <       0.00000068 Ry

     iteration # 10     ecut=    70.00 Ry     beta= 0.70
     Davidson diagonalization with overlap
     ethr =  3.80E-09,  avg # of iterations =  3.1

     total cpu time spent up to now is       27.5 secs

     total energy              =    -190.72432231 Ry
     estimated scf accuracy    <       0.00000018 Ry

     iteration # 11     ecut=    70.00 Ry     beta= 0.70
     Davidson diagonalization with overlap
     ethr =  1.00E-09,  avg # of iterations =  1.0

     total cpu time spent up to now is       29.5 secs

     total energy              =    -190.72432228 Ry
     estimated scf accuracy    <       0.00000009 Ry

     iteration # 12     ecut=    70.00 Ry     beta= 0.70
     Davidson diagonalization with overlap
     ethr =  4.92E-10,  avg # of iterations =  2.1

     total cpu time spent up to now is       31.7 secs

     End of self-consistent calculation

          k = 0.0000 0.0000 0.0000 (  3143 PWs)   bands (ev):

    -9.0335  -9.0335  -9.0335  -8.9684  -8.9684  -6.6210   5.6226   5.7621
     5.7621

          k =-0.1250 0.1250-0.1250 (  3197 PWs)   bands (ev):

    -9.0433  -9.0306  -9.0306  -8.9685  -8.9685  -6.4548   3.6687   5.5444
     5.5444

          k =-0.2500 0.2500-0.2500 (  3203 PWs)   bands (ev):

    -9.0653  -9.0244  -9.0244  -8.9679  -8.9679  -5.9916   1.6518   5.1336
     5.1336

          k =-0.3750 0.3750-0.3750 (  3200 PWs)   bands (ev):

    -9.0858  -9.0194  -9.0194  -8.9660  -8.9660  -5.3796   0.0419   4.8151
     4.8151

          k = 0.5000-0.5000 0.5000 (  3178 PWs)   bands (ev):

    -9.0939  -9.0178  -9.0178  -8.9648  -8.9648  -5.0401  -0.6394   4.7003
     4.7003

          k = 0.0000 0.2500 0.0000 (  3203 PWs)   bands (ev):

    -9.0493  -9.0279  -9.0279  -8.9707  -8.9667  -6.3992   3.5857   5.1570
     5.1570

          k =-0.1250 0.3750-0.1250 (  3211 PWs)   bands (ev):

    -9.0671  -9.0226  -9.0214  -8.9724  -8.9652  -6.0329   2.0856   4.6508
     4.7012

          k =-0.2500 0.5000-0.2500 (  3223 PWs)   bands (ev):

    -9.0856  -9.0183  -9.0159  -8.9715  -8.9638  -5.4542   0.4811   4.0675
     4.4271

          k = 0.6250-0.3750 0.6250 (  3195 PWs)   bands (ev):

    -9.0959  -9.0161  -9.0139  -8.9684  -8.9641  -4.9710  -0.5101   3.6586
     4.4163

          k = 0.5000-0.2500 0.5000 (  3188 PWs)   bands (ev):

    -9.0929  -9.0163  -9.0156  -8.9670  -8.9661  -5.0910  -0.2820   3.5383
     4.6636

          k = 0.3750-0.1250 0.3750 (  3199 PWs)   bands (ev):

    -9.0778  -9.0208  -9.0191  -8.9698  -8.9660  -5.6623   0.9813   3.7761
     5.0914

          k = 0.2500 0.0000 0.2500 (  3221 PWs)   bands (ev):

    -9.0576  -9.0274  -9.0246  -8.9700  -8.9670  -6.1883   2.5490   4.4952
     5.5009

          k = 0.0000 0.5000 0.0000 (  3207 PWs)   bands (ev):

    -9.0825  -9.0141  -9.0141  -8.9772  -8.9626  -5.7753   1.6174   4.1943
     4.1943

          k =-0.1250 0.6250-0.1250 (  3201 PWs)   bands (ev):

    -9.0973  -9.0090  -9.0075  -8.9792  -8.9610  -5.2831   0.5408   3.5013
     3.8843

          k = 0.7500-0.2500 0.7500 (  3191 PWs)   bands (ev):

    -9.1044  -9.0091  -9.0050  -8.9766  -8.9619  -4.7739  -0.3598   2.7188
     3.8663

          k = 0.6250-0.1250 0.6250 (  3189 PWs)   bands (ev):

    -9.1021  -9.0116  -9.0069  -8.9717  -8.9657  -4.6960  -0.4698   2.3320
     4.1421

          k = 0.5000 0.0000 0.5000 (  3190 PWs)   bands (ev):

    -9.0920  -9.0148  -9.0131  -8.9693  -8.9676  -5.1392   0.2100   2.6103
     4.6281

          k = 0.0000 0.7500 0.0000 (  3194 PWs)   bands (ev):

    -9.1110  -8.9999  -8.9999  -8.9846  -8.9586  -4.9115  -0.0579   3.5099
     3.5099

          k = 0.8750-0.1250 0.8750 (  3203 PWs)   bands (ev):

    -9.1163  -8.9991  -8.9969  -8.9843  -8.9586  -4.5155  -0.6263   2.8586
     3.4290

          k = 0.7500 0.0000 0.7500 (  3200 PWs)   bands (ev):

    -9.1117  -9.0047  -8.9994  -8.9790  -8.9620  -4.4154  -0.6968   2.1603
     3.6614

          k = 0.0000-1.0000 0.0000 (  3250 PWs)   bands (ev):

    -9.1218  -8.9940  -8.9940  -8.9879  -8.9569  -4.3802  -0.8633   3.2693
     3.2693

          k =-0.2500 0.5000 0.0000 (  3203 PWs)   bands (ev):

    -9.0834  -9.0170  -9.0147  -8.9744  -8.9637  -5.6011   1.0923   3.5222
     4.5474

          k = 0.6250-0.3750 0.8750 (  3188 PWs)   bands (ev):

    -9.0964  -9.0141  -9.0092  -8.9733  -8.9638  -5.0381  -0.0077   2.8870
     4.1462

          k = 0.5000-0.2500 0.7500 (  3186 PWs)   bands (ev):

    -9.1013  -9.0136  -9.0071  -8.9714  -8.9648  -4.7323  -0.5354   2.7095
     3.9614

          k = 0.7500-0.2500 1.0000 (  3187 PWs)   bands (ev):

    -9.1073  -9.0062  -9.0013  -8.9803  -8.9606  -4.8138  -0.1776   2.9192
     3.4581

          k = 0.6250-0.1250 0.8750 (  3196 PWs)   bands (ev):

    -9.1092  -9.0083  -8.9992  -8.9775  -8.9629  -4.4731  -0.6088   2.3381
     3.2918

          k = 0.5000 0.0000 0.7500 (  3205 PWs)   bands (ev):

    -9.1048  -9.0115  -9.0021  -8.9742  -8.9651  -4.5951  -0.4561   2.2038
     3.6096

          k =-0.2500-1.0000 0.0000 (  3192 PWs)   bands (ev):

    -9.1164  -9.0012  -8.9958  -8.9827  -8.9597  -4.3574  -0.7876   2.8315
     2.9238

          k =-0.5000-1.0000 0.0000 (  3188 PWs)   bands (ev):

    -9.1103  -9.0091  -8.9968  -8.9770  -8.9640  -4.3341  -0.7032   2.4657
     2.6468

     highest occupied level (ev):     5.7621

!    total energy              =    -190.72432229 Ry
     estimated scf accuracy    <          2.9E-09 Ry

     The total energy is the sum of the following terms:
     one-electron contribution =    -115.17353603 Ry
     hartree contribution      =      72.67852179 Ry
     xc contribution           =     -57.03404231 Ry
     ewald contribution        =     -91.19526574 Ry

     convergence has been achieved in  12 iterations

     Writing all to output data dir ./SCRATCH/gallium arsenide.save/

     init_run     :      1.48s CPU      1.76s WALL (       1 calls)
     electrons    :     24.78s CPU     29.90s WALL (       1 calls)

     Called by init_run:
     wfcinit      :      0.81s CPU      0.81s WALL (       1 calls)
     potinit      :      0.03s CPU      0.05s WALL (       1 calls)
     hinit0       :      0.50s CPU      0.51s WALL (       1 calls)

     Called by electrons:
     c_bands      :     17.77s CPU     17.90s WALL (      13 calls)
     sum_band     :      5.02s CPU      7.64s WALL (      13 calls)
     v_of_rho     :      0.11s CPU      0.14s WALL (      13 calls)
     newd         :      1.80s CPU      4.44s WALL (      13 calls)
     mix_rho      :      0.12s CPU      0.08s WALL (      13 calls)

     Called by c_bands:
     init_us_2    :      0.64s CPU      0.50s WALL (     783 calls)
     init_us_2:cp :      0.64s CPU      0.50s WALL (     783 calls)
     cegterg      :     16.91s CPU     17.04s WALL (     377 calls)

     Called by *egterg:
     cdiaghg      :      0.11s CPU      0.07s WALL (    1225 calls)
     h_psi        :     15.44s CPU     15.35s WALL (    1283 calls)
     s_psi        :      0.56s CPU      0.57s WALL (    1283 calls)
     g_psi        :      0.03s CPU      0.05s WALL (     877 calls)

     Called by h_psi:
     h_psi:calbec :      0.81s CPU      0.79s WALL (    1283 calls)
     vloc_psi     :     13.91s CPU     13.93s WALL (    1283 calls)
     add_vuspsi   :      0.62s CPU      0.57s WALL (    1283 calls)

     General routines
     calbec       :      1.14s CPU      1.08s WALL (    1660 calls)
     fft          :      0.17s CPU      0.19s WALL (      77 calls)
     ffts         :      0.05s CPU      0.03s WALL (      26 calls)
     fftw         :     14.55s CPU     14.75s WALL (   21383 calls)
     interpolate  :      0.06s CPU      0.06s WALL (      13 calls)


     PWSCF        :     26.39s CPU     31.78s WALL


   This run was terminated on:  13: 6:16  11Jun2024            

=------------------------------------------------------------------------------=
   JOB DONE.
=------------------------------------------------------------------------------=
