
     Program PWSCF v.7.2 starts on 26May2024 at 11:31:51 

     This program is part of the open-source Quantum ESPRESSO suite
     for quantum simulation of materials; please cite
         "P. Giannozzi et al., J. Phys.:Condens. Matter 21 395502 (2009);
         "P. Giannozzi et al., J. Phys.:Condens. Matter 29 465901 (2017);
         "P. Giannozzi et al., J. Chem. Phys. 152 154105 (2020);
          URL http://www.quantum-espresso.org", 
     in publications or presentations arising from this work. More details at
     http://www.quantum-espresso.org/quote

     Serial version
     9744 MiB available memory on the printing compute node when the environment starts

     Waiting for input...
     Reading input from standard input

     Current dimensions of program PWSCF are:
     Max number of different atomic species (ntypx) = 10
     Max number of k-points (npk) =  40000
     Max angular momentum in pseudopotentials (lmaxx) =  4


     G-vector sticks info
     --------------------
     sticks:   dense  smooth     PW     G-vecs:    dense   smooth      PW
     Sum         745     745    235                13635    13635    2277

     Using Slab Decomposition



     bravais-lattice index     =            2
     lattice parameter (alat)  =      10.4472  a.u.
     unit-cell volume          =     285.0591 (a.u.)^3
     number of atoms/cell      =            2
     number of atomic types    =            2
     number of electrons       =         8.00
     number of Kohn-Sham states=            4
     kinetic-energy cutoff     =      50.0000  Ry
     charge density cutoff     =     200.0000  Ry
     scf convergence threshold =      1.0E-08
     mixing beta               =       0.7000
     number of iterations used =            8  plain     mixing
     Exchange-correlation= SLA-PZ-NOGX-NOGC
                           (   1   1   0   0   0   0   0)

     celldm(1)=  10.447161  celldm(2)=   0.000000  celldm(3)=   0.000000
     celldm(4)=   0.000000  celldm(5)=   0.000000  celldm(6)=   0.000000

     crystal axes: (cart. coord. in units of alat)
               a(1) = (  -0.500000   0.000000   0.500000 )  
               a(2) = (   0.000000   0.500000   0.500000 )  
               a(3) = (  -0.500000   0.500000   0.000000 )  

     reciprocal axes: (cart. coord. in units 2 pi/alat)
               b(1) = ( -1.000000 -1.000000  1.000000 )  
               b(2) = (  1.000000  1.000000  1.000000 )  
               b(3) = ( -1.000000  1.000000 -1.000000 )  


     PseudoPot. # 1 for Zn read from file:
     /home/paolo/project_labqsm/pseudopotentials/Zn.pz-hgh.UPF
     MD5 check sum: c1979979258da2eeca1fc2dcb474678d
     Pseudo is Norm-conserving, Zval =  2.0
     Generated in analytical, separable form
     Using radial grid of 1201 points,  6 beta functions with: 
                l(1) =   0
                l(2) =   0
                l(3) =   0
                l(4) =   1
                l(5) =   1
                l(6) =   2

     PseudoPot. # 2 for S  read from file:
     /home/paolo/project_labqsm/pseudopotentials/S.pz-hgh.UPF
     MD5 check sum: a0679cb0a74c01c481c24d5fd31ffa9b
     Pseudo is Norm-conserving, Zval =  6.0
     Generated in analytical, separable form
     Using radial grid of 1151 points,  3 beta functions with: 
                l(1) =   0
                l(2) =   0
                l(3) =   1

     atomic species   valence    mass     pseudopotential
        Zn             2.00    65.38000     Zn( 1.00)
        S              6.00    32.06000     S ( 1.00)

     24 Sym. Ops. (no inversion) found



   Cartesian axes

     site n.     atom                  positions (alat units)
         1           Zn  tau(   1) = (   0.0000000   0.0000000   0.0000000  )
         2           S   tau(   2) = (   0.2500000   0.2500000   0.2500000  )

     number of k points=    29
                       cart. coord. in units 2pi/alat
        k(    1) = (   0.0000000   0.0000000   0.0000000), wk =   0.0039062
        k(    2) = (  -0.1250000   0.1250000  -0.1250000), wk =   0.0312500
        k(    3) = (  -0.2500000   0.2500000  -0.2500000), wk =   0.0312500
        k(    4) = (  -0.3750000   0.3750000  -0.3750000), wk =   0.0312500
        k(    5) = (   0.5000000  -0.5000000   0.5000000), wk =   0.0156250
        k(    6) = (   0.0000000   0.2500000   0.0000000), wk =   0.0234375
        k(    7) = (  -0.1250000   0.3750000  -0.1250000), wk =   0.0937500
        k(    8) = (  -0.2500000   0.5000000  -0.2500000), wk =   0.0937500
        k(    9) = (   0.6250000  -0.3750000   0.6250000), wk =   0.0937500
        k(   10) = (   0.5000000  -0.2500000   0.5000000), wk =   0.0937500
        k(   11) = (   0.3750000  -0.1250000   0.3750000), wk =   0.0937500
        k(   12) = (   0.2500000   0.0000000   0.2500000), wk =   0.0468750
        k(   13) = (   0.0000000   0.5000000   0.0000000), wk =   0.0234375
        k(   14) = (  -0.1250000   0.6250000  -0.1250000), wk =   0.0937500
        k(   15) = (   0.7500000  -0.2500000   0.7500000), wk =   0.0937500
        k(   16) = (   0.6250000  -0.1250000   0.6250000), wk =   0.0937500
        k(   17) = (   0.5000000   0.0000000   0.5000000), wk =   0.0468750
        k(   18) = (   0.0000000   0.7500000   0.0000000), wk =   0.0234375
        k(   19) = (   0.8750000  -0.1250000   0.8750000), wk =   0.0937500
        k(   20) = (   0.7500000   0.0000000   0.7500000), wk =   0.0468750
        k(   21) = (   0.0000000  -1.0000000   0.0000000), wk =   0.0117188
        k(   22) = (  -0.2500000   0.5000000   0.0000000), wk =   0.0937500
        k(   23) = (   0.6250000  -0.3750000   0.8750000), wk =   0.1875000
        k(   24) = (   0.5000000  -0.2500000   0.7500000), wk =   0.0937500
        k(   25) = (   0.7500000  -0.2500000   1.0000000), wk =   0.0937500
        k(   26) = (   0.6250000  -0.1250000   0.8750000), wk =   0.1875000
        k(   27) = (   0.5000000   0.0000000   0.7500000), wk =   0.0937500
        k(   28) = (  -0.2500000  -1.0000000   0.0000000), wk =   0.0468750
        k(   29) = (  -0.5000000  -1.0000000   0.0000000), wk =   0.0234375

     Dense  grid:    13635 G-vectors     FFT dimensions: (  36,  36,  36)

     Estimated max dynamical RAM per process >      16.11 MB

     Initial potential from superposition of free atoms

     starting charge       6.0000, renormalised to       8.0000
     Starting wfcs are   18 randomized atomic wfcs

     total cpu time spent up to now is        0.6 secs

     Self-consistent Calculation

     iteration #  1     ecut=    50.00 Ry     beta= 0.70
     Davidson diagonalization with overlap
     ethr =  1.00E-02,  avg # of iterations =  2.0

     total cpu time spent up to now is        0.9 secs

     total energy              =     -22.61699788 Ry
     estimated scf accuracy    <       0.71743398 Ry

     iteration #  2     ecut=    50.00 Ry     beta= 0.70
     Davidson diagonalization with overlap
     ethr =  8.97E-03,  avg # of iterations =  2.0

     total cpu time spent up to now is        1.3 secs

     total energy              =     -22.84902170 Ry
     estimated scf accuracy    <       0.16160325 Ry

     iteration #  3     ecut=    50.00 Ry     beta= 0.70
     Davidson diagonalization with overlap
     ethr =  2.02E-03,  avg # of iterations =  2.0

     negative rho (up, down):  8.652E-08 0.000E+00

     total cpu time spent up to now is        1.6 secs

     total energy              =     -22.86649170 Ry
     estimated scf accuracy    <       0.00495886 Ry

     iteration #  4     ecut=    50.00 Ry     beta= 0.70
     Davidson diagonalization with overlap
     ethr =  6.20E-05,  avg # of iterations =  2.2

     total cpu time spent up to now is        1.9 secs

     total energy              =     -22.86852445 Ry
     estimated scf accuracy    <       0.00382097 Ry

     iteration #  5     ecut=    50.00 Ry     beta= 0.70
     Davidson diagonalization with overlap
     ethr =  4.78E-05,  avg # of iterations =  1.3

     total cpu time spent up to now is        2.2 secs

     total energy              =     -22.86864905 Ry
     estimated scf accuracy    <       0.00038929 Ry

     iteration #  6     ecut=    50.00 Ry     beta= 0.70
     Davidson diagonalization with overlap
     ethr =  4.87E-06,  avg # of iterations =  2.6

     total cpu time spent up to now is        2.5 secs

     total energy              =     -22.86878861 Ry
     estimated scf accuracy    <       0.00000106 Ry

     iteration #  7     ecut=    50.00 Ry     beta= 0.70
     Davidson diagonalization with overlap
     ethr =  1.32E-08,  avg # of iterations =  5.6

     total cpu time spent up to now is        3.0 secs

     total energy              =     -22.86879182 Ry
     estimated scf accuracy    <       0.00000203 Ry

     iteration #  8     ecut=    50.00 Ry     beta= 0.70
     Davidson diagonalization with overlap
     ethr =  1.32E-08,  avg # of iterations =  2.7

     total cpu time spent up to now is        3.4 secs

     total energy              =     -22.86879237 Ry
     estimated scf accuracy    <       0.00000024 Ry

     iteration #  9     ecut=    50.00 Ry     beta= 0.70
     Davidson diagonalization with overlap
     ethr =  2.97E-09,  avg # of iterations =  2.0

     total cpu time spent up to now is        3.7 secs

     End of self-consistent calculation

          k = 0.0000 0.0000 0.0000 (  1687 PWs)   bands (ev):

   -10.2641   1.8646   1.8646   1.8646

          k =-0.1250 0.1250-0.1250 (  1720 PWs)   bands (ev):

   -10.1518   0.7831   1.7554   1.7554

          k =-0.2500 0.2500-0.2500 (  1700 PWs)   bands (ev):

    -9.8493  -0.8446   1.5191   1.5191

          k =-0.3750 0.3750-0.3750 (  1700 PWs)   bands (ev):

    -9.4853  -2.1299   1.3113   1.3113

          k = 0.5000-0.5000 0.5000 (  1694 PWs)   bands (ev):

    -9.3085  -2.6320   1.2321   1.2321

          k = 0.0000 0.2500 0.0000 (  1720 PWs)   bands (ev):

   -10.1144   0.7759   1.5445   1.5445

          k =-0.1250 0.3750-0.1250 (  1705 PWs)   bands (ev):

    -9.8744  -0.4427   1.2537   1.2946

          k =-0.2500 0.5000-0.2500 (  1689 PWs)   bands (ev):

    -9.5231  -1.7296   0.9422   1.0581

          k = 0.6250-0.3750 0.6250 (  1709 PWs)   bands (ev):

    -9.2673  -2.4628   0.6422   1.0441

          k = 0.5000-0.2500 0.5000 (  1708 PWs)   bands (ev):

    -9.3270  -2.3000   0.5384   1.2128

          k = 0.3750-0.1250 0.3750 (  1699 PWs)   bands (ev):

    -9.6448  -1.3388   0.7024   1.4896

          k = 0.2500 0.0000 0.2500 (  1727 PWs)   bands (ev):

    -9.9752  -0.0857   1.1806   1.7266

          k = 0.0000 0.5000 0.0000 (  1700 PWs)   bands (ev):

    -9.7111  -0.7334   0.8985   0.8985

          k =-0.1250 0.6250-0.1250 (  1700 PWs)   bands (ev):

    -9.4216  -1.5381   0.4405   0.6612

          k = 0.7500-0.2500 0.7500 (  1703 PWs)   bands (ev):

    -9.1603  -2.1385  -0.1661   0.6438

          k = 0.6250-0.1250 0.6250 (  1708 PWs)   bands (ev):

    -9.1244  -2.1827  -0.5166   0.8504

          k = 0.5000 0.0000 0.5000 (  1696 PWs)   bands (ev):

    -9.3451  -1.7841  -0.2586   1.1942

          k = 0.0000 0.7500 0.0000 (  1700 PWs)   bands (ev):

    -9.2246  -1.9057   0.3646   0.3646

          k = 0.8750-0.1250 0.8750 (  1699 PWs)   bands (ev):

    -9.0407  -2.2089  -0.1294   0.2975

          k = 0.7500 0.0000 0.7500 (  1710 PWs)   bands (ev):

    -8.9975  -2.1488  -0.7617   0.4835

          k = 0.0000-1.0000 0.0000 (  1724 PWs)   bands (ev):

    -8.9868  -2.3735   0.1657   0.1657

          k =-0.2500 0.5000 0.0000 (  1696 PWs)   bands (ev):

    -9.6062  -1.1800   0.4806   1.1693

          k = 0.6250-0.3750 0.8750 (  1701 PWs)   bands (ev):

    -9.2923  -1.9614  -0.0078   0.8840

          k = 0.5000-0.2500 0.7500 (  1704 PWs)   bands (ev):

    -9.1441  -2.3109  -0.1433   0.7400

          k = 0.7500-0.2500 1.0000 (  1693 PWs)   bands (ev):

    -9.1763  -1.9532  -0.0503   0.3597

          k = 0.6250-0.1250 0.8750 (  1700 PWs)   bands (ev):

    -9.0209  -2.1145  -0.5779   0.2335

          k = 0.5000 0.0000 0.7500 (  1702 PWs)   bands (ev):

    -9.0745  -2.0403  -0.6943   0.4897

          k =-0.2500-1.0000 0.0000 (  1694 PWs)   bands (ev):

    -8.9739  -2.2377  -0.1902  -0.0502

          k =-0.5000-1.0000 0.0000 (  1708 PWs)   bands (ev):

    -8.9608  -2.0575  -0.5632  -0.2412

     highest occupied level (ev):     1.8646

!    total energy              =     -22.86879241 Ry
     estimated scf accuracy    <          2.3E-11 Ry

     The total energy is the sum of the following terms:
     one-electron contribution =      -1.71890935 Ry
     hartree contribution      =       3.64192494 Ry
     xc contribution           =      -5.39506054 Ry
     ewald contribution        =     -19.39674746 Ry

     convergence has been achieved in   9 iterations

     Writing all to output data dir ./SCRATCH/zns.save/

     init_run     :      0.59s CPU      0.58s WALL (       1 calls)
     electrons    :      3.02s CPU      3.12s WALL (       1 calls)

     Called by init_run:
     wfcinit      :      0.45s CPU      0.45s WALL (       1 calls)
     potinit      :      0.02s CPU      0.01s WALL (       1 calls)
     hinit0       :      0.11s CPU      0.11s WALL (       1 calls)

     Called by electrons:
     c_bands      :      2.56s CPU      2.65s WALL (       9 calls)
     sum_band     :      0.42s CPU      0.42s WALL (       9 calls)
     v_of_rho     :      0.02s CPU      0.02s WALL (      10 calls)
     mix_rho      :      0.03s CPU      0.02s WALL (       9 calls)

     Called by c_bands:
     init_us_2    :      0.22s CPU      0.18s WALL (     551 calls)
     init_us_2:cp :      0.22s CPU      0.18s WALL (     551 calls)
     cegterg      :      2.33s CPU      2.41s WALL (     261 calls)

     Called by *egterg:
     cdiaghg      :      0.02s CPU      0.02s WALL (     910 calls)
     h_psi        :      2.64s CPU      2.56s WALL (     939 calls)
     g_psi        :      0.00s CPU      0.01s WALL (     649 calls)

     Called by h_psi:
     h_psi:calbec :      0.19s CPU      0.13s WALL (     939 calls)
     vloc_psi     :      2.39s CPU      2.32s WALL (     939 calls)
     add_vuspsi   :      0.06s CPU      0.09s WALL (     939 calls)

     General routines
     calbec       :      0.19s CPU      0.13s WALL (     939 calls)
     fft          :      0.02s CPU      0.01s WALL (      29 calls)
     ffts         :      0.00s CPU      0.00s WALL (       9 calls)
     fftw         :      2.34s CPU      2.35s WALL (    8478 calls)


     PWSCF        :      3.64s CPU      3.75s WALL


   This run was terminated on:  11:31:55  26May2024            

=------------------------------------------------------------------------------=
   JOB DONE.
=------------------------------------------------------------------------------=
