
     Program PWSCF v.7.2 starts on 26May2024 at 11:26: 2 

     This program is part of the open-source Quantum ESPRESSO suite
     for quantum simulation of materials; please cite
         "P. Giannozzi et al., J. Phys.:Condens. Matter 21 395502 (2009);
         "P. Giannozzi et al., J. Phys.:Condens. Matter 29 465901 (2017);
         "P. Giannozzi et al., J. Chem. Phys. 152 154105 (2020);
          URL http://www.quantum-espresso.org", 
     in publications or presentations arising from this work. More details at
     http://www.quantum-espresso.org/quote

     Serial version
     9774 MiB available memory on the printing compute node when the environment starts

     Waiting for input...
     Reading input from standard input

     Current dimensions of program PWSCF are:
     Max number of different atomic species (ntypx) = 10
     Max number of k-points (npk) =  40000
     Max angular momentum in pseudopotentials (lmaxx) =  4


     G-vector sticks info
     --------------------
     sticks:   dense  smooth     PW     G-vecs:    dense   smooth      PW
     Sum        1159    1159    349                25893    25893    4279

     Using Slab Decomposition



     bravais-lattice index     =            2
     lattice parameter (alat)  =      10.2423  a.u.
     unit-cell volume          =     268.6175 (a.u.)^3
     number of atoms/cell      =            2
     number of atomic types    =            2
     number of electrons       =         8.00
     number of Kohn-Sham states=            4
     kinetic-energy cutoff     =      80.0000  Ry
     charge density cutoff     =     320.0000  Ry
     scf convergence threshold =      1.0E-08
     mixing beta               =       0.7000
     number of iterations used =            8  plain     mixing
     Exchange-correlation= SLA-PZ-NOGX-NOGC
                           (   1   1   0   0   0   0   0)

     celldm(1)=  10.242315  celldm(2)=   0.000000  celldm(3)=   0.000000
     celldm(4)=   0.000000  celldm(5)=   0.000000  celldm(6)=   0.000000

     crystal axes: (cart. coord. in units of alat)
               a(1) = (  -0.500000   0.000000   0.500000 )  
               a(2) = (   0.000000   0.500000   0.500000 )  
               a(3) = (  -0.500000   0.500000   0.000000 )  

     reciprocal axes: (cart. coord. in units 2 pi/alat)
               b(1) = ( -1.000000 -1.000000  1.000000 )  
               b(2) = (  1.000000  1.000000  1.000000 )  
               b(3) = ( -1.000000  1.000000 -1.000000 )  


     PseudoPot. # 1 for Zn read from file:
     /home/paolo/project_labqsm/pseudopotentials/Zn.pz-hgh.UPF
     MD5 check sum: c1979979258da2eeca1fc2dcb474678d
     Pseudo is Norm-conserving, Zval =  2.0
     Generated in analytical, separable form
     Using radial grid of 1201 points,  6 beta functions with: 
                l(1) =   0
                l(2) =   0
                l(3) =   0
                l(4) =   1
                l(5) =   1
                l(6) =   2

     PseudoPot. # 2 for S  read from file:
     /home/paolo/project_labqsm/pseudopotentials/S.pz-hgh.UPF
     MD5 check sum: a0679cb0a74c01c481c24d5fd31ffa9b
     Pseudo is Norm-conserving, Zval =  6.0
     Generated in analytical, separable form
     Using radial grid of 1151 points,  3 beta functions with: 
                l(1) =   0
                l(2) =   0
                l(3) =   1

     atomic species   valence    mass     pseudopotential
        Zn             2.00    65.38000     Zn( 1.00)
        S              6.00    32.06000     S ( 1.00)

     24 Sym. Ops. (no inversion) found



   Cartesian axes

     site n.     atom                  positions (alat units)
         1           Zn  tau(   1) = (   0.0000000   0.0000000   0.0000000  )
         2           S   tau(   2) = (   0.2500000   0.2500000   0.2500000  )

     number of k points=    29
                       cart. coord. in units 2pi/alat
        k(    1) = (   0.0000000   0.0000000   0.0000000), wk =   0.0039062
        k(    2) = (  -0.1250000   0.1250000  -0.1250000), wk =   0.0312500
        k(    3) = (  -0.2500000   0.2500000  -0.2500000), wk =   0.0312500
        k(    4) = (  -0.3750000   0.3750000  -0.3750000), wk =   0.0312500
        k(    5) = (   0.5000000  -0.5000000   0.5000000), wk =   0.0156250
        k(    6) = (   0.0000000   0.2500000   0.0000000), wk =   0.0234375
        k(    7) = (  -0.1250000   0.3750000  -0.1250000), wk =   0.0937500
        k(    8) = (  -0.2500000   0.5000000  -0.2500000), wk =   0.0937500
        k(    9) = (   0.6250000  -0.3750000   0.6250000), wk =   0.0937500
        k(   10) = (   0.5000000  -0.2500000   0.5000000), wk =   0.0937500
        k(   11) = (   0.3750000  -0.1250000   0.3750000), wk =   0.0937500
        k(   12) = (   0.2500000   0.0000000   0.2500000), wk =   0.0468750
        k(   13) = (   0.0000000   0.5000000   0.0000000), wk =   0.0234375
        k(   14) = (  -0.1250000   0.6250000  -0.1250000), wk =   0.0937500
        k(   15) = (   0.7500000  -0.2500000   0.7500000), wk =   0.0937500
        k(   16) = (   0.6250000  -0.1250000   0.6250000), wk =   0.0937500
        k(   17) = (   0.5000000   0.0000000   0.5000000), wk =   0.0468750
        k(   18) = (   0.0000000   0.7500000   0.0000000), wk =   0.0234375
        k(   19) = (   0.8750000  -0.1250000   0.8750000), wk =   0.0937500
        k(   20) = (   0.7500000   0.0000000   0.7500000), wk =   0.0468750
        k(   21) = (   0.0000000  -1.0000000   0.0000000), wk =   0.0117188
        k(   22) = (  -0.2500000   0.5000000   0.0000000), wk =   0.0937500
        k(   23) = (   0.6250000  -0.3750000   0.8750000), wk =   0.1875000
        k(   24) = (   0.5000000  -0.2500000   0.7500000), wk =   0.0937500
        k(   25) = (   0.7500000  -0.2500000   1.0000000), wk =   0.0937500
        k(   26) = (   0.6250000  -0.1250000   0.8750000), wk =   0.1875000
        k(   27) = (   0.5000000   0.0000000   0.7500000), wk =   0.0937500
        k(   28) = (  -0.2500000  -1.0000000   0.0000000), wk =   0.0468750
        k(   29) = (  -0.5000000  -1.0000000   0.0000000), wk =   0.0234375

     Dense  grid:    25893 G-vectors     FFT dimensions: (  45,  45,  45)

     Estimated max dynamical RAM per process >      29.36 MB

     Initial potential from superposition of free atoms

     starting charge       6.0000, renormalised to       8.0000
     Starting wfcs are   18 randomized atomic wfcs

     total cpu time spent up to now is        1.3 secs

     Self-consistent Calculation

     iteration #  1     ecut=    80.00 Ry     beta= 0.70
     Davidson diagonalization with overlap
     ethr =  1.00E-02,  avg # of iterations =  2.0

     total cpu time spent up to now is        2.0 secs

     total energy              =     -22.67032627 Ry
     estimated scf accuracy    <       0.64750301 Ry

     iteration #  2     ecut=    80.00 Ry     beta= 0.70
     Davidson diagonalization with overlap
     ethr =  8.09E-03,  avg # of iterations =  2.0

     total cpu time spent up to now is        2.7 secs

     total energy              =     -22.87488520 Ry
     estimated scf accuracy    <       0.12501709 Ry

     iteration #  3     ecut=    80.00 Ry     beta= 0.70
     Davidson diagonalization with overlap
     ethr =  1.56E-03,  avg # of iterations =  2.0

     negative rho (up, down):  3.552E-08 0.000E+00

     total cpu time spent up to now is        3.5 secs

     total energy              =     -22.88865104 Ry
     estimated scf accuracy    <       0.00364085 Ry

     iteration #  4     ecut=    80.00 Ry     beta= 0.70
     Davidson diagonalization with overlap
     ethr =  4.55E-05,  avg # of iterations =  2.2

     total cpu time spent up to now is        4.2 secs

     total energy              =     -22.89007550 Ry
     estimated scf accuracy    <       0.00228924 Ry

     iteration #  5     ecut=    80.00 Ry     beta= 0.70
     Davidson diagonalization with overlap
     ethr =  2.86E-05,  avg # of iterations =  1.3

     total cpu time spent up to now is        4.9 secs

     total energy              =     -22.89016404 Ry
     estimated scf accuracy    <       0.00021554 Ry

     iteration #  6     ecut=    80.00 Ry     beta= 0.70
     Davidson diagonalization with overlap
     ethr =  2.69E-06,  avg # of iterations =  2.6

     total cpu time spent up to now is        5.7 secs

     total energy              =     -22.89023969 Ry
     estimated scf accuracy    <       0.00000033 Ry

     iteration #  7     ecut=    80.00 Ry     beta= 0.70
     Davidson diagonalization with overlap
     ethr =  4.08E-09,  avg # of iterations =  6.3

     total cpu time spent up to now is        7.0 secs

     total energy              =     -22.89024160 Ry
     estimated scf accuracy    <       0.00000065 Ry

     iteration #  8     ecut=    80.00 Ry     beta= 0.70
     Davidson diagonalization with overlap
     ethr =  4.08E-09,  avg # of iterations =  2.3

     total cpu time spent up to now is        7.8 secs

     total energy              =     -22.89024177 Ry
     estimated scf accuracy    <       0.00000005 Ry

     iteration #  9     ecut=    80.00 Ry     beta= 0.70
     Davidson diagonalization with overlap
     ethr =  6.50E-10,  avg # of iterations =  2.0

     total cpu time spent up to now is        8.5 secs

     End of self-consistent calculation

          k = 0.0000 0.0000 0.0000 (  3287 PWs)   bands (ev):

   -10.0701   2.3647   2.3647   2.3647

          k =-0.1250 0.1250-0.1250 (  3248 PWs)   bands (ev):

    -9.9456   1.2508   2.2458   2.2458

          k =-0.2500 0.2500-0.2500 (  3251 PWs)   bands (ev):

    -9.6068  -0.4872   1.9890   1.9890

          k =-0.3750 0.3750-0.3750 (  3254 PWs)   bands (ev):

    -9.1911  -1.8844   1.7648   1.7648

          k = 0.5000-0.5000 0.5000 (  3214 PWs)   bands (ev):

    -8.9849  -2.4381   1.6795   1.6795

          k = 0.0000 0.2500 0.0000 (  3255 PWs)   bands (ev):

    -9.9041   1.2651   2.0128   2.0128

          k =-0.1250 0.3750-0.1250 (  3248 PWs)   bands (ev):

    -9.6356  -0.0401   1.6961   1.7470

          k =-0.2500 0.5000-0.2500 (  3262 PWs)   bands (ev):

    -9.2362  -1.4416   1.3690   1.4857

          k = 0.6250-0.3750 0.6250 (  3245 PWs)   bands (ev):

    -8.9387  -2.2516   1.0465   1.4732

          k = 0.5000-0.2500 0.5000 (  3253 PWs)   bands (ev):

    -9.0085  -2.0714   0.9312   1.6577

          k = 0.3750-0.1250 0.3750 (  3249 PWs)   bands (ev):

    -9.3754  -1.0141   1.1003   1.9589

          k = 0.2500 0.0000 0.2500 (  3259 PWs)   bands (ev):

    -9.7486   0.3399   1.6136   2.2171

          k = 0.0000 0.5000 0.0000 (  3263 PWs)   bands (ev):

    -9.4523  -0.3304   1.3091   1.3091

          k =-0.1250 0.6250-0.1250 (  3249 PWs)   bands (ev):

    -9.1221  -1.2096   0.8144   1.0533

          k = 0.7500-0.2500 0.7500 (  3244 PWs)   bands (ev):

    -8.8175  -1.8826   0.1622   1.0363

          k = 0.6250-0.1250 0.6250 (  3233 PWs)   bands (ev):

    -8.7743  -1.9371  -0.2170   1.2618

          k = 0.5000 0.0000 0.5000 (  3250 PWs)   bands (ev):

    -9.0316  -1.4910   0.0545   1.6363

          k = 0.0000 0.7500 0.0000 (  3266 PWs)   bands (ev):

    -8.8956  -1.6066   0.7327   0.7327

          k = 0.8750-0.1250 0.8750 (  3255 PWs)   bands (ev):

    -8.6800  -1.9466   0.1921   0.6610

          k = 0.7500 0.0000 0.7500 (  3238 PWs)   bands (ev):

    -8.6272  -1.8840  -0.5000   0.8630

          k = 0.0000-1.0000 0.0000 (  3250 PWs)   bands (ev):

    -8.6172  -2.1285   0.5190   0.5190

          k =-0.2500 0.5000 0.0000 (  3241 PWs)   bands (ev):

    -9.3324  -0.8267   0.8535   1.6087

          k = 0.6250-0.3750 0.8750 (  3246 PWs)   bands (ev):

    -8.9707  -1.6894   0.3344   1.2960

          k = 0.5000-0.2500 0.7500 (  3238 PWs)   bands (ev):

    -8.7967  -2.0828   0.1957   1.1379

          k = 0.7500-0.2500 1.0000 (  3238 PWs)   bands (ev):

    -8.8380  -1.6649   0.2806   0.7217

          k = 0.6250-0.1250 0.8750 (  3245 PWs)   bands (ev):

    -8.6545  -1.8493  -0.2939   0.5835

          k = 0.5000 0.0000 0.7500 (  3243 PWs)   bands (ev):

    -8.7169  -1.7688  -0.4209   0.8636

          k =-0.2500-1.0000 0.0000 (  3260 PWs)   bands (ev):

    -8.6006  -1.9809   0.1293   0.2734

          k =-0.5000-1.0000 0.0000 (  3248 PWs)   bands (ev):

    -8.5839  -1.7808  -0.2806   0.0587

     highest occupied level (ev):     2.3647

!    total energy              =     -22.89024178 Ry
     estimated scf accuracy    <          8.3E-10 Ry

     The total energy is the sum of the following terms:
     one-electron contribution =      -1.15789843 Ry
     hartree contribution      =       3.49077820 Ry
     xc contribution           =      -5.43843917 Ry
     ewald contribution        =     -19.78468237 Ry

     convergence has been achieved in   9 iterations

     Writing all to output data dir ./SCRATCH/zns.save/

     init_run     :      1.17s CPU      1.23s WALL (       1 calls)
     electrons    :      7.17s CPU      7.28s WALL (       1 calls)

     Called by init_run:
     wfcinit      :      1.00s CPU      1.05s WALL (       1 calls)
     potinit      :      0.02s CPU      0.02s WALL (       1 calls)
     hinit0       :      0.14s CPU      0.14s WALL (       1 calls)

     Called by electrons:
     c_bands      :      6.08s CPU      6.21s WALL (       9 calls)
     sum_band     :      1.00s CPU      0.99s WALL (       9 calls)
     v_of_rho     :      0.05s CPU      0.05s WALL (      10 calls)
     mix_rho      :      0.03s CPU      0.03s WALL (       9 calls)

     Called by c_bands:
     init_us_2    :      0.39s CPU      0.33s WALL (     551 calls)
     init_us_2:cp :      0.39s CPU      0.33s WALL (     551 calls)
     cegterg      :      5.75s CPU      5.79s WALL (     261 calls)

     Called by *egterg:
     cdiaghg      :      0.02s CPU      0.02s WALL (     919 calls)
     h_psi        :      6.31s CPU      6.30s WALL (     948 calls)
     g_psi        :      0.00s CPU      0.02s WALL (     658 calls)

     Called by h_psi:
     h_psi:calbec :      0.19s CPU      0.26s WALL (     948 calls)
     vloc_psi     :      5.92s CPU      5.84s WALL (     948 calls)
     add_vuspsi   :      0.20s CPU      0.18s WALL (     948 calls)

     General routines
     calbec       :      0.19s CPU      0.25s WALL (     948 calls)
     fft          :      0.05s CPU      0.03s WALL (      29 calls)
     ffts         :      0.00s CPU      0.01s WALL (       9 calls)
     fftw         :      6.14s CPU      6.07s WALL (    8578 calls)


     PWSCF        :      8.38s CPU      8.56s WALL


   This run was terminated on:  11:26:11  26May2024            

=------------------------------------------------------------------------------=
   JOB DONE.
=------------------------------------------------------------------------------=
