
     Program PWSCF v.7.2 starts on 26May2024 at 11:31:55 

     This program is part of the open-source Quantum ESPRESSO suite
     for quantum simulation of materials; please cite
         "P. Giannozzi et al., J. Phys.:Condens. Matter 21 395502 (2009);
         "P. Giannozzi et al., J. Phys.:Condens. Matter 29 465901 (2017);
         "P. Giannozzi et al., J. Chem. Phys. 152 154105 (2020);
          URL http://www.quantum-espresso.org", 
     in publications or presentations arising from this work. More details at
     http://www.quantum-espresso.org/quote

     Serial version
     9735 MiB available memory on the printing compute node when the environment starts

     Waiting for input...
     Reading input from standard input

     Current dimensions of program PWSCF are:
     Max number of different atomic species (ntypx) = 10
     Max number of k-points (npk) =  40000
     Max angular momentum in pseudopotentials (lmaxx) =  4


     G-vector sticks info
     --------------------
     sticks:   dense  smooth     PW     G-vecs:    dense   smooth      PW
     Sum         913     913    271                17933    17933    2975

     Using Slab Decomposition



     bravais-lattice index     =            2
     lattice parameter (alat)  =      10.4472  a.u.
     unit-cell volume          =     285.0591 (a.u.)^3
     number of atoms/cell      =            2
     number of atomic types    =            2
     number of electrons       =         8.00
     number of Kohn-Sham states=            4
     kinetic-energy cutoff     =      60.0000  Ry
     charge density cutoff     =     240.0000  Ry
     scf convergence threshold =      1.0E-08
     mixing beta               =       0.7000
     number of iterations used =            8  plain     mixing
     Exchange-correlation= SLA-PZ-NOGX-NOGC
                           (   1   1   0   0   0   0   0)

     celldm(1)=  10.447161  celldm(2)=   0.000000  celldm(3)=   0.000000
     celldm(4)=   0.000000  celldm(5)=   0.000000  celldm(6)=   0.000000

     crystal axes: (cart. coord. in units of alat)
               a(1) = (  -0.500000   0.000000   0.500000 )  
               a(2) = (   0.000000   0.500000   0.500000 )  
               a(3) = (  -0.500000   0.500000   0.000000 )  

     reciprocal axes: (cart. coord. in units 2 pi/alat)
               b(1) = ( -1.000000 -1.000000  1.000000 )  
               b(2) = (  1.000000  1.000000  1.000000 )  
               b(3) = ( -1.000000  1.000000 -1.000000 )  


     PseudoPot. # 1 for Zn read from file:
     /home/paolo/project_labqsm/pseudopotentials/Zn.pz-hgh.UPF
     MD5 check sum: c1979979258da2eeca1fc2dcb474678d
     Pseudo is Norm-conserving, Zval =  2.0
     Generated in analytical, separable form
     Using radial grid of 1201 points,  6 beta functions with: 
                l(1) =   0
                l(2) =   0
                l(3) =   0
                l(4) =   1
                l(5) =   1
                l(6) =   2

     PseudoPot. # 2 for S  read from file:
     /home/paolo/project_labqsm/pseudopotentials/S.pz-hgh.UPF
     MD5 check sum: a0679cb0a74c01c481c24d5fd31ffa9b
     Pseudo is Norm-conserving, Zval =  6.0
     Generated in analytical, separable form
     Using radial grid of 1151 points,  3 beta functions with: 
                l(1) =   0
                l(2) =   0
                l(3) =   1

     atomic species   valence    mass     pseudopotential
        Zn             2.00    65.38000     Zn( 1.00)
        S              6.00    32.06000     S ( 1.00)

     24 Sym. Ops. (no inversion) found



   Cartesian axes

     site n.     atom                  positions (alat units)
         1           Zn  tau(   1) = (   0.0000000   0.0000000   0.0000000  )
         2           S   tau(   2) = (   0.2500000   0.2500000   0.2500000  )

     number of k points=    29
                       cart. coord. in units 2pi/alat
        k(    1) = (   0.0000000   0.0000000   0.0000000), wk =   0.0039062
        k(    2) = (  -0.1250000   0.1250000  -0.1250000), wk =   0.0312500
        k(    3) = (  -0.2500000   0.2500000  -0.2500000), wk =   0.0312500
        k(    4) = (  -0.3750000   0.3750000  -0.3750000), wk =   0.0312500
        k(    5) = (   0.5000000  -0.5000000   0.5000000), wk =   0.0156250
        k(    6) = (   0.0000000   0.2500000   0.0000000), wk =   0.0234375
        k(    7) = (  -0.1250000   0.3750000  -0.1250000), wk =   0.0937500
        k(    8) = (  -0.2500000   0.5000000  -0.2500000), wk =   0.0937500
        k(    9) = (   0.6250000  -0.3750000   0.6250000), wk =   0.0937500
        k(   10) = (   0.5000000  -0.2500000   0.5000000), wk =   0.0937500
        k(   11) = (   0.3750000  -0.1250000   0.3750000), wk =   0.0937500
        k(   12) = (   0.2500000   0.0000000   0.2500000), wk =   0.0468750
        k(   13) = (   0.0000000   0.5000000   0.0000000), wk =   0.0234375
        k(   14) = (  -0.1250000   0.6250000  -0.1250000), wk =   0.0937500
        k(   15) = (   0.7500000  -0.2500000   0.7500000), wk =   0.0937500
        k(   16) = (   0.6250000  -0.1250000   0.6250000), wk =   0.0937500
        k(   17) = (   0.5000000   0.0000000   0.5000000), wk =   0.0468750
        k(   18) = (   0.0000000   0.7500000   0.0000000), wk =   0.0234375
        k(   19) = (   0.8750000  -0.1250000   0.8750000), wk =   0.0937500
        k(   20) = (   0.7500000   0.0000000   0.7500000), wk =   0.0468750
        k(   21) = (   0.0000000  -1.0000000   0.0000000), wk =   0.0117188
        k(   22) = (  -0.2500000   0.5000000   0.0000000), wk =   0.0937500
        k(   23) = (   0.6250000  -0.3750000   0.8750000), wk =   0.1875000
        k(   24) = (   0.5000000  -0.2500000   0.7500000), wk =   0.0937500
        k(   25) = (   0.7500000  -0.2500000   1.0000000), wk =   0.0937500
        k(   26) = (   0.6250000  -0.1250000   0.8750000), wk =   0.1875000
        k(   27) = (   0.5000000   0.0000000   0.7500000), wk =   0.0937500
        k(   28) = (  -0.2500000  -1.0000000   0.0000000), wk =   0.0468750
        k(   29) = (  -0.5000000  -1.0000000   0.0000000), wk =   0.0234375

     Dense  grid:    17933 G-vectors     FFT dimensions: (  40,  40,  40)

     Estimated max dynamical RAM per process >      20.87 MB

     Initial potential from superposition of free atoms

     starting charge       6.0000, renormalised to       8.0000
     Starting wfcs are   18 randomized atomic wfcs

     total cpu time spent up to now is        0.9 secs

     Self-consistent Calculation

     iteration #  1     ecut=    60.00 Ry     beta= 0.70
     Davidson diagonalization with overlap
     ethr =  1.00E-02,  avg # of iterations =  2.0

     total cpu time spent up to now is        1.3 secs

     total energy              =     -22.61875205 Ry
     estimated scf accuracy    <       0.71640157 Ry

     iteration #  2     ecut=    60.00 Ry     beta= 0.70
     Davidson diagonalization with overlap
     ethr =  8.96E-03,  avg # of iterations =  2.0

     total cpu time spent up to now is        1.9 secs

     total energy              =     -22.85044469 Ry
     estimated scf accuracy    <       0.16189932 Ry

     iteration #  3     ecut=    60.00 Ry     beta= 0.70
     Davidson diagonalization with overlap
     ethr =  2.02E-03,  avg # of iterations =  2.0

     negative rho (up, down):  6.769E-08 0.000E+00

     total cpu time spent up to now is        2.3 secs

     total energy              =     -22.86805178 Ry
     estimated scf accuracy    <       0.00491529 Ry

     iteration #  4     ecut=    60.00 Ry     beta= 0.70
     Davidson diagonalization with overlap
     ethr =  6.14E-05,  avg # of iterations =  2.2

     total cpu time spent up to now is        2.9 secs

     total energy              =     -22.87006081 Ry
     estimated scf accuracy    <       0.00381559 Ry

     iteration #  5     ecut=    60.00 Ry     beta= 0.70
     Davidson diagonalization with overlap
     ethr =  4.77E-05,  avg # of iterations =  1.2

     total cpu time spent up to now is        3.3 secs

     total energy              =     -22.87018420 Ry
     estimated scf accuracy    <       0.00038888 Ry

     iteration #  6     ecut=    60.00 Ry     beta= 0.70
     Davidson diagonalization with overlap
     ethr =  4.86E-06,  avg # of iterations =  2.7

     total cpu time spent up to now is        3.8 secs

     total energy              =     -22.87032519 Ry
     estimated scf accuracy    <       0.00000126 Ry

     iteration #  7     ecut=    60.00 Ry     beta= 0.70
     Davidson diagonalization with overlap
     ethr =  1.58E-08,  avg # of iterations =  5.5

     total cpu time spent up to now is        4.6 secs

     total energy              =     -22.87032817 Ry
     estimated scf accuracy    <       0.00000221 Ry

     iteration #  8     ecut=    60.00 Ry     beta= 0.70
     Davidson diagonalization with overlap
     ethr =  1.58E-08,  avg # of iterations =  2.9

     total cpu time spent up to now is        5.1 secs

     total energy              =     -22.87032880 Ry
     estimated scf accuracy    <       0.00000066 Ry

     iteration #  9     ecut=    60.00 Ry     beta= 0.70
     Davidson diagonalization with overlap
     ethr =  8.25E-09,  avg # of iterations =  2.0

     total cpu time spent up to now is        5.6 secs

     End of self-consistent calculation

          k = 0.0000 0.0000 0.0000 (  2229 PWs)   bands (ev):

   -10.2623   1.8618   1.8618   1.8618

          k =-0.1250 0.1250-0.1250 (  2211 PWs)   bands (ev):

   -10.1500   0.7816   1.7532   1.7532

          k =-0.2500 0.2500-0.2500 (  2229 PWs)   bands (ev):

    -9.8474  -0.8462   1.5168   1.5168

          k =-0.3750 0.3750-0.3750 (  2229 PWs)   bands (ev):

    -9.4833  -2.1311   1.3090   1.3090

          k = 0.5000-0.5000 0.5000 (  2252 PWs)   bands (ev):

    -9.3065  -2.6332   1.2295   1.2295

          k = 0.0000 0.2500 0.0000 (  2213 PWs)   bands (ev):

   -10.1126   0.7746   1.5423   1.5423

          k =-0.1250 0.3750-0.1250 (  2227 PWs)   bands (ev):

    -9.8725  -0.4443   1.2515   1.2926

          k =-0.2500 0.5000-0.2500 (  2243 PWs)   bands (ev):

    -9.5211  -1.7311   0.9399   1.0557

          k = 0.6250-0.3750 0.6250 (  2240 PWs)   bands (ev):

    -9.2652  -2.4640   0.6403   1.0419

          k = 0.5000-0.2500 0.5000 (  2237 PWs)   bands (ev):

    -9.3249  -2.3013   0.5365   1.2106

          k = 0.3750-0.1250 0.3750 (  2230 PWs)   bands (ev):

    -9.6429  -1.3402   0.7004   1.4872

          k = 0.2500 0.0000 0.2500 (  2227 PWs)   bands (ev):

    -9.9734  -0.0871   1.1787   1.7247

          k = 0.0000 0.5000 0.0000 (  2221 PWs)   bands (ev):

    -9.7092  -0.7348   0.8963   0.8963

          k =-0.1250 0.6250-0.1250 (  2235 PWs)   bands (ev):

    -9.4197  -1.5394   0.4385   0.6591

          k = 0.7500-0.2500 0.7500 (  2247 PWs)   bands (ev):

    -9.1582  -2.1398  -0.1679   0.6416

          k = 0.6250-0.1250 0.6250 (  2248 PWs)   bands (ev):

    -9.1223  -2.1840  -0.5183   0.8482

          k = 0.5000 0.0000 0.5000 (  2239 PWs)   bands (ev):

    -9.3430  -1.7855  -0.2605   1.1919

          k = 0.0000 0.7500 0.0000 (  2237 PWs)   bands (ev):

    -9.2225  -1.9070   0.3626   0.3626

          k = 0.8750-0.1250 0.8750 (  2246 PWs)   bands (ev):

    -9.0386  -2.2102  -0.1313   0.2955

          k = 0.7500 0.0000 0.7500 (  2245 PWs)   bands (ev):

    -8.9954  -2.1501  -0.7633   0.4815

          k = 0.0000-1.0000 0.0000 (  2232 PWs)   bands (ev):

    -8.9847  -2.3747   0.1641   0.1641

          k =-0.2500 0.5000 0.0000 (  2233 PWs)   bands (ev):

    -9.6043  -1.1814   0.4785   1.1670

          k = 0.6250-0.3750 0.8750 (  2242 PWs)   bands (ev):

    -9.2903  -1.9628  -0.0097   0.8819

          k = 0.5000-0.2500 0.7500 (  2250 PWs)   bands (ev):

    -9.1420  -2.3123  -0.1451   0.7379

          k = 0.7500-0.2500 1.0000 (  2236 PWs)   bands (ev):

    -9.1742  -1.9546  -0.0522   0.3576

          k = 0.6250-0.1250 0.8750 (  2235 PWs)   bands (ev):

    -9.0187  -2.1158  -0.5796   0.2315

          k = 0.5000 0.0000 0.7500 (  2246 PWs)   bands (ev):

    -9.0724  -2.0417  -0.6961   0.4876

          k =-0.2500-1.0000 0.0000 (  2236 PWs)   bands (ev):

    -8.9717  -2.2390  -0.1921  -0.0521

          k =-0.5000-1.0000 0.0000 (  2244 PWs)   bands (ev):

    -8.9586  -2.0588  -0.5650  -0.2429

     highest occupied level (ev):     1.8618

!    total energy              =     -22.87032890 Ry
     estimated scf accuracy    <          3.2E-09 Ry

     The total energy is the sum of the following terms:
     one-electron contribution =      -1.72097879 Ry
     hartree contribution      =       3.64295679 Ry
     xc contribution           =      -5.39555946 Ry
     ewald contribution        =     -19.39674743 Ry

     convergence has been achieved in   9 iterations

     Writing all to output data dir ./SCRATCH/zns.save/

     init_run     :      0.83s CPU      0.85s WALL (       1 calls)
     electrons    :      4.58s CPU      4.75s WALL (       1 calls)

     Called by init_run:
     wfcinit      :      0.69s CPU      0.70s WALL (       1 calls)
     potinit      :      0.00s CPU      0.01s WALL (       1 calls)
     hinit0       :      0.12s CPU      0.12s WALL (       1 calls)

     Called by electrons:
     c_bands      :      3.91s CPU      4.04s WALL (       9 calls)
     sum_band     :      0.64s CPU      0.66s WALL (       9 calls)
     v_of_rho     :      0.03s CPU      0.03s WALL (      10 calls)
     mix_rho      :      0.00s CPU      0.02s WALL (       9 calls)

     Called by c_bands:
     init_us_2    :      0.23s CPU      0.23s WALL (     551 calls)
     init_us_2:cp :      0.23s CPU      0.23s WALL (     551 calls)
     cegterg      :      3.69s CPU      3.74s WALL (     261 calls)

     Called by *egterg:
     cdiaghg      :      0.00s CPU      0.02s WALL (     914 calls)
     h_psi        :      4.02s CPU      4.05s WALL (     943 calls)
     g_psi        :      0.00s CPU      0.01s WALL (     653 calls)

     Called by h_psi:
     h_psi:calbec :      0.19s CPU      0.17s WALL (     943 calls)
     vloc_psi     :      3.73s CPU      3.74s WALL (     943 calls)
     add_vuspsi   :      0.08s CPU      0.12s WALL (     943 calls)

     General routines
     calbec       :      0.19s CPU      0.17s WALL (     943 calls)
     fft          :      0.02s CPU      0.02s WALL (      29 calls)
     ffts         :      0.00s CPU      0.01s WALL (       9 calls)
     fftw         :      3.86s CPU      3.88s WALL (    8460 calls)


     PWSCF        :      5.44s CPU      5.65s WALL


   This run was terminated on:  11:32: 1  26May2024            

=------------------------------------------------------------------------------=
   JOB DONE.
=------------------------------------------------------------------------------=
