
     Program PWSCF v.7.2 starts on 26May2024 at 11:25:47 

     This program is part of the open-source Quantum ESPRESSO suite
     for quantum simulation of materials; please cite
         "P. Giannozzi et al., J. Phys.:Condens. Matter 21 395502 (2009);
         "P. Giannozzi et al., J. Phys.:Condens. Matter 29 465901 (2017);
         "P. Giannozzi et al., J. Chem. Phys. 152 154105 (2020);
          URL http://www.quantum-espresso.org", 
     in publications or presentations arising from this work. More details at
     http://www.quantum-espresso.org/quote

     Serial version
     9810 MiB available memory on the printing compute node when the environment starts

     Waiting for input...
     Reading input from standard input

     Current dimensions of program PWSCF are:
     Max number of different atomic species (ntypx) = 10
     Max number of k-points (npk) =  40000
     Max angular momentum in pseudopotentials (lmaxx) =  4


     G-vector sticks info
     --------------------
     sticks:   dense  smooth     PW     G-vecs:    dense   smooth      PW
     Sum         583     583    187                 9257     9257    1639

     Using Slab Decomposition



     bravais-lattice index     =            2
     lattice parameter (alat)  =      10.2423  a.u.
     unit-cell volume          =     268.6175 (a.u.)^3
     number of atoms/cell      =            2
     number of atomic types    =            2
     number of electrons       =         8.00
     number of Kohn-Sham states=            4
     kinetic-energy cutoff     =      40.0000  Ry
     charge density cutoff     =     160.0000  Ry
     scf convergence threshold =      1.0E-08
     mixing beta               =       0.7000
     number of iterations used =            8  plain     mixing
     Exchange-correlation= SLA-PZ-NOGX-NOGC
                           (   1   1   0   0   0   0   0)

     celldm(1)=  10.242315  celldm(2)=   0.000000  celldm(3)=   0.000000
     celldm(4)=   0.000000  celldm(5)=   0.000000  celldm(6)=   0.000000

     crystal axes: (cart. coord. in units of alat)
               a(1) = (  -0.500000   0.000000   0.500000 )  
               a(2) = (   0.000000   0.500000   0.500000 )  
               a(3) = (  -0.500000   0.500000   0.000000 )  

     reciprocal axes: (cart. coord. in units 2 pi/alat)
               b(1) = ( -1.000000 -1.000000  1.000000 )  
               b(2) = (  1.000000  1.000000  1.000000 )  
               b(3) = ( -1.000000  1.000000 -1.000000 )  


     PseudoPot. # 1 for Zn read from file:
     /home/paolo/project_labqsm/pseudopotentials/Zn.pz-hgh.UPF
     MD5 check sum: c1979979258da2eeca1fc2dcb474678d
     Pseudo is Norm-conserving, Zval =  2.0
     Generated in analytical, separable form
     Using radial grid of 1201 points,  6 beta functions with: 
                l(1) =   0
                l(2) =   0
                l(3) =   0
                l(4) =   1
                l(5) =   1
                l(6) =   2

     PseudoPot. # 2 for S  read from file:
     /home/paolo/project_labqsm/pseudopotentials/S.pz-hgh.UPF
     MD5 check sum: a0679cb0a74c01c481c24d5fd31ffa9b
     Pseudo is Norm-conserving, Zval =  6.0
     Generated in analytical, separable form
     Using radial grid of 1151 points,  3 beta functions with: 
                l(1) =   0
                l(2) =   0
                l(3) =   1

     atomic species   valence    mass     pseudopotential
        Zn             2.00    65.38000     Zn( 1.00)
        S              6.00    32.06000     S ( 1.00)

     24 Sym. Ops. (no inversion) found



   Cartesian axes

     site n.     atom                  positions (alat units)
         1           Zn  tau(   1) = (   0.0000000   0.0000000   0.0000000  )
         2           S   tau(   2) = (   0.2500000   0.2500000   0.2500000  )

     number of k points=    29
                       cart. coord. in units 2pi/alat
        k(    1) = (   0.0000000   0.0000000   0.0000000), wk =   0.0039062
        k(    2) = (  -0.1250000   0.1250000  -0.1250000), wk =   0.0312500
        k(    3) = (  -0.2500000   0.2500000  -0.2500000), wk =   0.0312500
        k(    4) = (  -0.3750000   0.3750000  -0.3750000), wk =   0.0312500
        k(    5) = (   0.5000000  -0.5000000   0.5000000), wk =   0.0156250
        k(    6) = (   0.0000000   0.2500000   0.0000000), wk =   0.0234375
        k(    7) = (  -0.1250000   0.3750000  -0.1250000), wk =   0.0937500
        k(    8) = (  -0.2500000   0.5000000  -0.2500000), wk =   0.0937500
        k(    9) = (   0.6250000  -0.3750000   0.6250000), wk =   0.0937500
        k(   10) = (   0.5000000  -0.2500000   0.5000000), wk =   0.0937500
        k(   11) = (   0.3750000  -0.1250000   0.3750000), wk =   0.0937500
        k(   12) = (   0.2500000   0.0000000   0.2500000), wk =   0.0468750
        k(   13) = (   0.0000000   0.5000000   0.0000000), wk =   0.0234375
        k(   14) = (  -0.1250000   0.6250000  -0.1250000), wk =   0.0937500
        k(   15) = (   0.7500000  -0.2500000   0.7500000), wk =   0.0937500
        k(   16) = (   0.6250000  -0.1250000   0.6250000), wk =   0.0937500
        k(   17) = (   0.5000000   0.0000000   0.5000000), wk =   0.0468750
        k(   18) = (   0.0000000   0.7500000   0.0000000), wk =   0.0234375
        k(   19) = (   0.8750000  -0.1250000   0.8750000), wk =   0.0937500
        k(   20) = (   0.7500000   0.0000000   0.7500000), wk =   0.0468750
        k(   21) = (   0.0000000  -1.0000000   0.0000000), wk =   0.0117188
        k(   22) = (  -0.2500000   0.5000000   0.0000000), wk =   0.0937500
        k(   23) = (   0.6250000  -0.3750000   0.8750000), wk =   0.1875000
        k(   24) = (   0.5000000  -0.2500000   0.7500000), wk =   0.0937500
        k(   25) = (   0.7500000  -0.2500000   1.0000000), wk =   0.0937500
        k(   26) = (   0.6250000  -0.1250000   0.8750000), wk =   0.1875000
        k(   27) = (   0.5000000   0.0000000   0.7500000), wk =   0.0937500
        k(   28) = (  -0.2500000  -1.0000000   0.0000000), wk =   0.0468750
        k(   29) = (  -0.5000000  -1.0000000   0.0000000), wk =   0.0234375

     Dense  grid:     9257 G-vectors     FFT dimensions: (  30,  30,  30)

     Estimated max dynamical RAM per process >      11.09 MB

     Initial potential from superposition of free atoms

     starting charge       6.0000, renormalised to       8.0000
     Starting wfcs are   18 randomized atomic wfcs

     total cpu time spent up to now is        0.4 secs

     Self-consistent Calculation

     iteration #  1     ecut=    40.00 Ry     beta= 0.70
     Davidson diagonalization with overlap
     ethr =  1.00E-02,  avg # of iterations =  2.0

     total cpu time spent up to now is        0.6 secs

     total energy              =     -22.66306234 Ry
     estimated scf accuracy    <       0.65058587 Ry

     iteration #  2     ecut=    40.00 Ry     beta= 0.70
     Davidson diagonalization with overlap
     ethr =  8.13E-03,  avg # of iterations =  2.0

     total cpu time spent up to now is        0.9 secs

     total energy              =     -22.86816077 Ry
     estimated scf accuracy    <       0.12505938 Ry

     iteration #  3     ecut=    40.00 Ry     beta= 0.70
     Davidson diagonalization with overlap
     ethr =  1.56E-03,  avg # of iterations =  2.0

     negative rho (up, down):  9.120E-08 0.000E+00

     total cpu time spent up to now is        1.1 secs

     total energy              =     -22.88186541 Ry
     estimated scf accuracy    <       0.00368577 Ry

     iteration #  4     ecut=    40.00 Ry     beta= 0.70
     Davidson diagonalization with overlap
     ethr =  4.61E-05,  avg # of iterations =  2.3

     total cpu time spent up to now is        1.3 secs

     total energy              =     -22.88333110 Ry
     estimated scf accuracy    <       0.00234750 Ry

     iteration #  5     ecut=    40.00 Ry     beta= 0.70
     Davidson diagonalization with overlap
     ethr =  2.93E-05,  avg # of iterations =  1.3

     total cpu time spent up to now is        1.5 secs

     total energy              =     -22.88342135 Ry
     estimated scf accuracy    <       0.00022285 Ry

     iteration #  6     ecut=    40.00 Ry     beta= 0.70
     Davidson diagonalization with overlap
     ethr =  2.79E-06,  avg # of iterations =  2.5

     total cpu time spent up to now is        1.7 secs

     total energy              =     -22.88349849 Ry
     estimated scf accuracy    <       0.00000027 Ry

     iteration #  7     ecut=    40.00 Ry     beta= 0.70
     Davidson diagonalization with overlap
     ethr =  3.39E-09,  avg # of iterations =  6.6

     total cpu time spent up to now is        2.1 secs

     total energy              =     -22.88350062 Ry
     estimated scf accuracy    <       0.00000092 Ry

     iteration #  8     ecut=    40.00 Ry     beta= 0.70
     Davidson diagonalization with overlap
     ethr =  3.39E-09,  avg # of iterations =  2.2

     total cpu time spent up to now is        2.3 secs

     total energy              =     -22.88350077 Ry
     estimated scf accuracy    <       0.00000001 Ry

     iteration #  9     ecut=    40.00 Ry     beta= 0.70
     Davidson diagonalization with overlap
     ethr =  1.65E-10,  avg # of iterations =  2.7

     total cpu time spent up to now is        2.5 secs

     End of self-consistent calculation

          k = 0.0000 0.0000 0.0000 (  1139 PWs)   bands (ev):

   -10.0753   2.3767   2.3767   2.3767

          k =-0.1250 0.1250-0.1250 (  1155 PWs)   bands (ev):

    -9.9511   1.2584   2.2569   2.2569

          k =-0.2500 0.2500-0.2500 (  1152 PWs)   bands (ev):

    -9.6126  -0.4805   1.9989   1.9989

          k =-0.3750 0.3750-0.3750 (  1155 PWs)   bands (ev):

    -9.1975  -1.8789   1.7747   1.7747

          k = 0.5000-0.5000 0.5000 (  1158 PWs)   bands (ev):

    -8.9916  -2.4329   1.6894   1.6894

          k = 0.0000 0.2500 0.0000 (  1155 PWs)   bands (ev):

    -9.9097   1.2723   2.0234   2.0234

          k =-0.1250 0.3750-0.1250 (  1151 PWs)   bands (ev):

    -9.6414  -0.0334   1.7060   1.7568

          k =-0.2500 0.5000-0.2500 (  1141 PWs)   bands (ev):

    -9.2422  -1.4358   1.3787   1.4960

          k = 0.6250-0.3750 0.6250 (  1149 PWs)   bands (ev):

    -8.9453  -2.2462   1.0557   1.4829

          k = 0.5000-0.2500 0.5000 (  1147 PWs)   bands (ev):

    -9.0150  -2.0658   0.9401   1.6678

          k = 0.3750-0.1250 0.3750 (  1143 PWs)   bands (ev):

    -9.3813  -1.0081   1.1096   1.9697

          k = 0.2500 0.0000 0.2500 (  1159 PWs)   bands (ev):

    -9.7544   0.3464   1.6230   2.2277

          k = 0.0000 0.5000 0.0000 (  1174 PWs)   bands (ev):

    -9.4584  -0.3249   1.3176   1.3176

          k =-0.1250 0.6250-0.1250 (  1147 PWs)   bands (ev):

    -9.1283  -1.2039   0.8232   1.0630

          k = 0.7500-0.2500 0.7500 (  1150 PWs)   bands (ev):

    -8.8242  -1.8769   0.1699   1.0457

          k = 0.6250-0.1250 0.6250 (  1139 PWs)   bands (ev):

    -8.7809  -1.9312  -0.2093   1.2720

          k = 0.5000 0.0000 0.5000 (  1135 PWs)   bands (ev):

    -9.0378  -1.4850   0.0629   1.6470

          k = 0.0000 0.7500 0.0000 (  1150 PWs)   bands (ev):

    -8.9021  -1.6012   0.7417   0.7417

          k = 0.8750-0.1250 0.8750 (  1144 PWs)   bands (ev):

    -8.6867  -1.9409   0.2003   0.6702

          k = 0.7500 0.0000 0.7500 (  1144 PWs)   bands (ev):

    -8.6341  -1.8779  -0.4928   0.8725

          k = 0.0000-1.0000 0.0000 (  1162 PWs)   bands (ev):

    -8.6243  -2.1229   0.5270   0.5270

          k =-0.2500 0.5000 0.0000 (  1137 PWs)   bands (ev):

    -9.3382  -0.8206   0.8628   1.6191

          k = 0.6250-0.3750 0.8750 (  1145 PWs)   bands (ev):

    -8.9771  -1.6838   0.3427   1.3058

          k = 0.5000-0.2500 0.7500 (  1154 PWs)   bands (ev):

    -8.8035  -2.0773   0.2034   1.1471

          k = 0.7500-0.2500 1.0000 (  1142 PWs)   bands (ev):

    -8.8445  -1.6591   0.2889   0.7308

          k = 0.6250-0.1250 0.8750 (  1153 PWs)   bands (ev):

    -8.6615  -1.8434  -0.2865   0.5919

          k = 0.5000 0.0000 0.7500 (  1143 PWs)   bands (ev):

    -8.7237  -1.7626  -0.4133   0.8726

          k =-0.2500-1.0000 0.0000 (  1152 PWs)   bands (ev):

    -8.6077  -1.9749   0.1372   0.2814

          k =-0.5000-1.0000 0.0000 (  1144 PWs)   bands (ev):

    -8.5908  -1.7745  -0.2731   0.0669

     highest occupied level (ev):     2.3767

!    total energy              =     -22.88350077 Ry
     estimated scf accuracy    <          2.9E-09 Ry

     The total energy is the sum of the following terms:
     one-electron contribution =      -1.14861420 Ry
     hartree contribution      =       3.48600480 Ry
     xc contribution           =      -5.43620895 Ry
     ewald contribution        =     -19.78468241 Ry

     convergence has been achieved in   9 iterations

     Writing all to output data dir ./SCRATCH/zns.save/

     init_run     :      0.36s CPU      0.41s WALL (       1 calls)
     electrons    :      1.97s CPU      2.09s WALL (       1 calls)

     Called by init_run:
     wfcinit      :      0.27s CPU      0.30s WALL (       1 calls)
     potinit      :      0.00s CPU      0.01s WALL (       1 calls)
     hinit0       :      0.09s CPU      0.10s WALL (       1 calls)

     Called by electrons:
     c_bands      :      1.67s CPU      1.78s WALL (       9 calls)
     sum_band     :      0.28s CPU      0.28s WALL (       9 calls)
     v_of_rho     :      0.00s CPU      0.01s WALL (      10 calls)
     mix_rho      :      0.02s CPU      0.01s WALL (       9 calls)

     Called by c_bands:
     init_us_2    :      0.03s CPU      0.12s WALL (     551 calls)
     init_us_2:cp :      0.03s CPU      0.12s WALL (     551 calls)
     cegterg      :      1.59s CPU      1.61s WALL (     261 calls)

     Called by *egterg:
     cdiaghg      :      0.02s CPU      0.02s WALL (     943 calls)
     h_psi        :      1.64s CPU      1.69s WALL (     972 calls)
     g_psi        :      0.00s CPU      0.01s WALL (     682 calls)

     Called by h_psi:
     h_psi:calbec :      0.11s CPU      0.09s WALL (     972 calls)
     vloc_psi     :      1.45s CPU      1.52s WALL (     972 calls)
     add_vuspsi   :      0.05s CPU      0.07s WALL (     972 calls)

     General routines
     calbec       :      0.11s CPU      0.09s WALL (     972 calls)
     fft          :      0.00s CPU      0.01s WALL (      29 calls)
     ffts         :      0.02s CPU      0.00s WALL (       9 calls)
     fftw         :      1.48s CPU      1.56s WALL (    8530 calls)


     PWSCF        :      2.36s CPU      2.55s WALL


   This run was terminated on:  11:25:49  26May2024            

=------------------------------------------------------------------------------=
   JOB DONE.
=------------------------------------------------------------------------------=
