
     Program PWSCF v.7.2 starts on 26May2024 at 11:32:26 

     This program is part of the open-source Quantum ESPRESSO suite
     for quantum simulation of materials; please cite
         "P. Giannozzi et al., J. Phys.:Condens. Matter 21 395502 (2009);
         "P. Giannozzi et al., J. Phys.:Condens. Matter 29 465901 (2017);
         "P. Giannozzi et al., J. Chem. Phys. 152 154105 (2020);
          URL http://www.quantum-espresso.org", 
     in publications or presentations arising from this work. More details at
     http://www.quantum-espresso.org/quote

     Serial version
     9729 MiB available memory on the printing compute node when the environment starts

     Waiting for input...
     Reading input from standard input

     Current dimensions of program PWSCF are:
     Max number of different atomic species (ntypx) = 10
     Max number of k-points (npk) =  40000
     Max angular momentum in pseudopotentials (lmaxx) =  4


     G-vector sticks info
     --------------------
     sticks:   dense  smooth     PW     G-vecs:    dense   smooth      PW
     Sum        1801    1801    511                50629    50629    7799

     Using Slab Decomposition



     bravais-lattice index     =            2
     lattice parameter (alat)  =      10.4472  a.u.
     unit-cell volume          =     285.0591 (a.u.)^3
     number of atoms/cell      =            2
     number of atomic types    =            2
     number of electrons       =         8.00
     number of Kohn-Sham states=            4
     kinetic-energy cutoff     =     120.0000  Ry
     charge density cutoff     =     480.0000  Ry
     scf convergence threshold =      1.0E-08
     mixing beta               =       0.7000
     number of iterations used =            8  plain     mixing
     Exchange-correlation= SLA-PZ-NOGX-NOGC
                           (   1   1   0   0   0   0   0)

     celldm(1)=  10.447161  celldm(2)=   0.000000  celldm(3)=   0.000000
     celldm(4)=   0.000000  celldm(5)=   0.000000  celldm(6)=   0.000000

     crystal axes: (cart. coord. in units of alat)
               a(1) = (  -0.500000   0.000000   0.500000 )  
               a(2) = (   0.000000   0.500000   0.500000 )  
               a(3) = (  -0.500000   0.500000   0.000000 )  

     reciprocal axes: (cart. coord. in units 2 pi/alat)
               b(1) = ( -1.000000 -1.000000  1.000000 )  
               b(2) = (  1.000000  1.000000  1.000000 )  
               b(3) = ( -1.000000  1.000000 -1.000000 )  


     PseudoPot. # 1 for Zn read from file:
     /home/paolo/project_labqsm/pseudopotentials/Zn.pz-hgh.UPF
     MD5 check sum: c1979979258da2eeca1fc2dcb474678d
     Pseudo is Norm-conserving, Zval =  2.0
     Generated in analytical, separable form
     Using radial grid of 1201 points,  6 beta functions with: 
                l(1) =   0
                l(2) =   0
                l(3) =   0
                l(4) =   1
                l(5) =   1
                l(6) =   2

     PseudoPot. # 2 for S  read from file:
     /home/paolo/project_labqsm/pseudopotentials/S.pz-hgh.UPF
     MD5 check sum: a0679cb0a74c01c481c24d5fd31ffa9b
     Pseudo is Norm-conserving, Zval =  6.0
     Generated in analytical, separable form
     Using radial grid of 1151 points,  3 beta functions with: 
                l(1) =   0
                l(2) =   0
                l(3) =   1

     atomic species   valence    mass     pseudopotential
        Zn             2.00    65.38000     Zn( 1.00)
        S              6.00    32.06000     S ( 1.00)

     24 Sym. Ops. (no inversion) found



   Cartesian axes

     site n.     atom                  positions (alat units)
         1           Zn  tau(   1) = (   0.0000000   0.0000000   0.0000000  )
         2           S   tau(   2) = (   0.2500000   0.2500000   0.2500000  )

     number of k points=    29
                       cart. coord. in units 2pi/alat
        k(    1) = (   0.0000000   0.0000000   0.0000000), wk =   0.0039062
        k(    2) = (  -0.1250000   0.1250000  -0.1250000), wk =   0.0312500
        k(    3) = (  -0.2500000   0.2500000  -0.2500000), wk =   0.0312500
        k(    4) = (  -0.3750000   0.3750000  -0.3750000), wk =   0.0312500
        k(    5) = (   0.5000000  -0.5000000   0.5000000), wk =   0.0156250
        k(    6) = (   0.0000000   0.2500000   0.0000000), wk =   0.0234375
        k(    7) = (  -0.1250000   0.3750000  -0.1250000), wk =   0.0937500
        k(    8) = (  -0.2500000   0.5000000  -0.2500000), wk =   0.0937500
        k(    9) = (   0.6250000  -0.3750000   0.6250000), wk =   0.0937500
        k(   10) = (   0.5000000  -0.2500000   0.5000000), wk =   0.0937500
        k(   11) = (   0.3750000  -0.1250000   0.3750000), wk =   0.0937500
        k(   12) = (   0.2500000   0.0000000   0.2500000), wk =   0.0468750
        k(   13) = (   0.0000000   0.5000000   0.0000000), wk =   0.0234375
        k(   14) = (  -0.1250000   0.6250000  -0.1250000), wk =   0.0937500
        k(   15) = (   0.7500000  -0.2500000   0.7500000), wk =   0.0937500
        k(   16) = (   0.6250000  -0.1250000   0.6250000), wk =   0.0937500
        k(   17) = (   0.5000000   0.0000000   0.5000000), wk =   0.0468750
        k(   18) = (   0.0000000   0.7500000   0.0000000), wk =   0.0234375
        k(   19) = (   0.8750000  -0.1250000   0.8750000), wk =   0.0937500
        k(   20) = (   0.7500000   0.0000000   0.7500000), wk =   0.0468750
        k(   21) = (   0.0000000  -1.0000000   0.0000000), wk =   0.0117188
        k(   22) = (  -0.2500000   0.5000000   0.0000000), wk =   0.0937500
        k(   23) = (   0.6250000  -0.3750000   0.8750000), wk =   0.1875000
        k(   24) = (   0.5000000  -0.2500000   0.7500000), wk =   0.0937500
        k(   25) = (   0.7500000  -0.2500000   1.0000000), wk =   0.0937500
        k(   26) = (   0.6250000  -0.1250000   0.8750000), wk =   0.1875000
        k(   27) = (   0.5000000   0.0000000   0.7500000), wk =   0.0937500
        k(   28) = (  -0.2500000  -1.0000000   0.0000000), wk =   0.0468750
        k(   29) = (  -0.5000000  -1.0000000   0.0000000), wk =   0.0234375

     Dense  grid:    50629 G-vectors     FFT dimensions: (  54,  54,  54)

     Estimated max dynamical RAM per process >      53.83 MB

     Initial potential from superposition of free atoms

     starting charge       6.0000, renormalised to       8.0000
     Starting wfcs are   18 randomized atomic wfcs

     total cpu time spent up to now is        2.3 secs

     Self-consistent Calculation

     iteration #  1     ecut=   120.00 Ry     beta= 0.70
     Davidson diagonalization with overlap
     ethr =  1.00E-02,  avg # of iterations =  2.0

     total cpu time spent up to now is        3.6 secs

     total energy              =     -22.61966035 Ry
     estimated scf accuracy    <       0.71613308 Ry

     iteration #  2     ecut=   120.00 Ry     beta= 0.70
     Davidson diagonalization with overlap
     ethr =  8.95E-03,  avg # of iterations =  2.0

     total cpu time spent up to now is        5.1 secs

     total energy              =     -22.85157699 Ry
     estimated scf accuracy    <       0.16212211 Ry

     iteration #  3     ecut=   120.00 Ry     beta= 0.70
     Davidson diagonalization with overlap
     ethr =  2.03E-03,  avg # of iterations =  2.0

     negative rho (up, down):  2.751E-08 0.000E+00

     total cpu time spent up to now is        6.5 secs

     total energy              =     -22.86919046 Ry
     estimated scf accuracy    <       0.00492648 Ry

     iteration #  4     ecut=   120.00 Ry     beta= 0.70
     Davidson diagonalization with overlap
     ethr =  6.16E-05,  avg # of iterations =  2.3

     total cpu time spent up to now is        8.0 secs

     total energy              =     -22.87120724 Ry
     estimated scf accuracy    <       0.00382566 Ry

     iteration #  5     ecut=   120.00 Ry     beta= 0.70
     Davidson diagonalization with overlap
     ethr =  4.78E-05,  avg # of iterations =  1.2

     total cpu time spent up to now is        9.2 secs

     total energy              =     -22.87132959 Ry
     estimated scf accuracy    <       0.00039188 Ry

     iteration #  6     ecut=   120.00 Ry     beta= 0.70
     Davidson diagonalization with overlap
     ethr =  4.90E-06,  avg # of iterations =  2.6

     total cpu time spent up to now is       10.8 secs

     total energy              =     -22.87147089 Ry
     estimated scf accuracy    <       0.00000113 Ry

     iteration #  7     ecut=   120.00 Ry     beta= 0.70
     Davidson diagonalization with overlap
     ethr =  1.41E-08,  avg # of iterations =  5.6

     total cpu time spent up to now is       13.1 secs

     total energy              =     -22.87147413 Ry
     estimated scf accuracy    <       0.00000197 Ry

     iteration #  8     ecut=   120.00 Ry     beta= 0.70
     Davidson diagonalization with overlap
     ethr =  1.41E-08,  avg # of iterations =  2.9

     total cpu time spent up to now is       14.7 secs

     total energy              =     -22.87147468 Ry
     estimated scf accuracy    <       0.00000051 Ry

     iteration #  9     ecut=   120.00 Ry     beta= 0.70
     Davidson diagonalization with overlap
     ethr =  6.31E-09,  avg # of iterations =  2.0

     total cpu time spent up to now is       16.3 secs

     End of self-consistent calculation

          k = 0.0000 0.0000 0.0000 (  6303 PWs)   bands (ev):

   -10.2623   1.8602   1.8602   1.8602

          k =-0.1250 0.1250-0.1250 (  6306 PWs)   bands (ev):

   -10.1500   0.7803   1.7516   1.7516

          k =-0.2500 0.2500-0.2500 (  6318 PWs)   bands (ev):

    -9.8474  -0.8471   1.5152   1.5152

          k =-0.3750 0.3750-0.3750 (  6324 PWs)   bands (ev):

    -9.4833  -2.1319   1.3075   1.3075

          k = 0.5000-0.5000 0.5000 (  6322 PWs)   bands (ev):

    -9.3064  -2.6339   1.2281   1.2281

          k = 0.0000 0.2500 0.0000 (  6310 PWs)   bands (ev):

   -10.1126   0.7733   1.5407   1.5407

          k =-0.1250 0.3750-0.1250 (  6313 PWs)   bands (ev):

    -9.8725  -0.4452   1.2500   1.2911

          k =-0.2500 0.5000-0.2500 (  6312 PWs)   bands (ev):

    -9.5211  -1.7319   0.9386   1.0543

          k = 0.6250-0.3750 0.6250 (  6329 PWs)   bands (ev):

    -9.2652  -2.4648   0.6390   1.0405

          k = 0.5000-0.2500 0.5000 (  6331 PWs)   bands (ev):

    -9.3249  -2.3021   0.5352   1.2091

          k = 0.3750-0.1250 0.3750 (  6322 PWs)   bands (ev):

    -9.6429  -1.3411   0.6991   1.4857

          k = 0.2500 0.0000 0.2500 (  6301 PWs)   bands (ev):

    -9.9733  -0.0882   1.1772   1.7230

          k = 0.0000 0.5000 0.0000 (  6302 PWs)   bands (ev):

    -9.7092  -0.7357   0.8949   0.8949

          k =-0.1250 0.6250-0.1250 (  6324 PWs)   bands (ev):

    -9.4196  -1.5403   0.4372   0.6578

          k = 0.7500-0.2500 0.7500 (  6335 PWs)   bands (ev):

    -9.1582  -2.1406  -0.1690   0.6404

          k = 0.6250-0.1250 0.6250 (  6345 PWs)   bands (ev):

    -9.1223  -2.1848  -0.5194   0.8469

          k = 0.5000 0.0000 0.5000 (  6351 PWs)   bands (ev):

    -9.3430  -1.7864  -0.2615   1.1904

          k = 0.0000 0.7500 0.0000 (  6314 PWs)   bands (ev):

    -9.2225  -1.9078   0.3614   0.3614

          k = 0.8750-0.1250 0.8750 (  6330 PWs)   bands (ev):

    -9.0386  -2.2110  -0.1324   0.2943

          k = 0.7500 0.0000 0.7500 (  6327 PWs)   bands (ev):

    -8.9953  -2.1510  -0.7642   0.4802

          k = 0.0000-1.0000 0.0000 (  6346 PWs)   bands (ev):

    -8.9847  -2.3755   0.1629   0.1629

          k =-0.2500 0.5000 0.0000 (  6313 PWs)   bands (ev):

    -9.6043  -1.1823   0.4772   1.1656

          k = 0.6250-0.3750 0.8750 (  6319 PWs)   bands (ev):

    -9.2903  -1.9636  -0.0108   0.8805

          k = 0.5000-0.2500 0.7500 (  6326 PWs)   bands (ev):

    -9.1419  -2.3130  -0.1462   0.7366

          k = 0.7500-0.2500 1.0000 (  6347 PWs)   bands (ev):

    -9.1742  -1.9554  -0.0533   0.3563

          k = 0.6250-0.1250 0.8750 (  6342 PWs)   bands (ev):

    -9.0187  -2.1167  -0.5807   0.2303

          k = 0.5000 0.0000 0.7500 (  6331 PWs)   bands (ev):

    -9.0724  -2.0425  -0.6970   0.4864

          k =-0.2500-1.0000 0.0000 (  6332 PWs)   bands (ev):

    -8.9717  -2.2398  -0.1932  -0.0533

          k =-0.5000-1.0000 0.0000 (  6352 PWs)   bands (ev):

    -8.9586  -2.0597  -0.5660  -0.2439

     highest occupied level (ev):     1.8602

!    total energy              =     -22.87147476 Ry
     estimated scf accuracy    <          1.7E-09 Ry

     The total energy is the sum of the following terms:
     one-electron contribution =      -1.72258290 Ry
     hartree contribution      =       3.64376448 Ry
     xc contribution           =      -5.39590892 Ry
     ewald contribution        =     -19.39674743 Ry

     convergence has been achieved in   9 iterations

     Writing all to output data dir ./SCRATCH/zns.save/

     init_run     :      2.19s CPU      2.27s WALL (       1 calls)
     electrons    :     13.81s CPU     13.97s WALL (       1 calls)

     Called by init_run:
     wfcinit      :      1.97s CPU      2.02s WALL (       1 calls)
     potinit      :      0.02s CPU      0.03s WALL (       1 calls)
     hinit0       :      0.17s CPU      0.18s WALL (       1 calls)

     Called by electrons:
     c_bands      :     11.72s CPU     11.83s WALL (       9 calls)
     sum_band     :      1.94s CPU      1.98s WALL (       9 calls)
     v_of_rho     :      0.06s CPU      0.08s WALL (      10 calls)
     mix_rho      :      0.06s CPU      0.07s WALL (       9 calls)

     Called by c_bands:
     init_us_2    :      0.64s CPU      0.67s WALL (     551 calls)
     init_us_2:cp :      0.64s CPU      0.67s WALL (     551 calls)
     cegterg      :     11.11s CPU     11.03s WALL (     261 calls)

     Called by *egterg:
     cdiaghg      :      0.03s CPU      0.02s WALL (     914 calls)
     h_psi        :     12.05s CPU     12.02s WALL (     943 calls)
     g_psi        :      0.00s CPU      0.04s WALL (     653 calls)

     Called by h_psi:
     h_psi:calbec :      0.55s CPU      0.54s WALL (     943 calls)
     vloc_psi     :     11.17s CPU     11.09s WALL (     943 calls)
     add_vuspsi   :      0.27s CPU      0.35s WALL (     943 calls)

     General routines
     calbec       :      0.55s CPU      0.54s WALL (     943 calls)
     fft          :      0.08s CPU      0.06s WALL (      29 calls)
     ffts         :      0.00s CPU      0.02s WALL (       9 calls)
     fftw         :     11.81s CPU     11.55s WALL (    8486 calls)


     PWSCF        :     16.02s CPU     16.31s WALL


   This run was terminated on:  11:32:42  26May2024            

=------------------------------------------------------------------------------=
   JOB DONE.
=------------------------------------------------------------------------------=
