
     Program PWSCF v.7.2 starts on 26May2024 at 11:25:56 

     This program is part of the open-source Quantum ESPRESSO suite
     for quantum simulation of materials; please cite
         "P. Giannozzi et al., J. Phys.:Condens. Matter 21 395502 (2009);
         "P. Giannozzi et al., J. Phys.:Condens. Matter 29 465901 (2017);
         "P. Giannozzi et al., J. Chem. Phys. 152 154105 (2020);
          URL http://www.quantum-espresso.org", 
     in publications or presentations arising from this work. More details at
     http://www.quantum-espresso.org/quote

     Serial version
     9786 MiB available memory on the printing compute node when the environment starts

     Waiting for input...
     Reading input from standard input

     Current dimensions of program PWSCF are:
     Max number of different atomic species (ntypx) = 10
     Max number of k-points (npk) =  40000
     Max angular momentum in pseudopotentials (lmaxx) =  4


     G-vector sticks info
     --------------------
     sticks:   dense  smooth     PW     G-vecs:    dense   smooth      PW
     Sum        1027    1027    301                21331    21331    3479

     Using Slab Decomposition



     bravais-lattice index     =            2
     lattice parameter (alat)  =      10.2423  a.u.
     unit-cell volume          =     268.6175 (a.u.)^3
     number of atoms/cell      =            2
     number of atomic types    =            2
     number of electrons       =         8.00
     number of Kohn-Sham states=            4
     kinetic-energy cutoff     =      70.0000  Ry
     charge density cutoff     =     280.0000  Ry
     scf convergence threshold =      1.0E-08
     mixing beta               =       0.7000
     number of iterations used =            8  plain     mixing
     Exchange-correlation= SLA-PZ-NOGX-NOGC
                           (   1   1   0   0   0   0   0)

     celldm(1)=  10.242315  celldm(2)=   0.000000  celldm(3)=   0.000000
     celldm(4)=   0.000000  celldm(5)=   0.000000  celldm(6)=   0.000000

     crystal axes: (cart. coord. in units of alat)
               a(1) = (  -0.500000   0.000000   0.500000 )  
               a(2) = (   0.000000   0.500000   0.500000 )  
               a(3) = (  -0.500000   0.500000   0.000000 )  

     reciprocal axes: (cart. coord. in units 2 pi/alat)
               b(1) = ( -1.000000 -1.000000  1.000000 )  
               b(2) = (  1.000000  1.000000  1.000000 )  
               b(3) = ( -1.000000  1.000000 -1.000000 )  


     PseudoPot. # 1 for Zn read from file:
     /home/paolo/project_labqsm/pseudopotentials/Zn.pz-hgh.UPF
     MD5 check sum: c1979979258da2eeca1fc2dcb474678d
     Pseudo is Norm-conserving, Zval =  2.0
     Generated in analytical, separable form
     Using radial grid of 1201 points,  6 beta functions with: 
                l(1) =   0
                l(2) =   0
                l(3) =   0
                l(4) =   1
                l(5) =   1
                l(6) =   2

     PseudoPot. # 2 for S  read from file:
     /home/paolo/project_labqsm/pseudopotentials/S.pz-hgh.UPF
     MD5 check sum: a0679cb0a74c01c481c24d5fd31ffa9b
     Pseudo is Norm-conserving, Zval =  6.0
     Generated in analytical, separable form
     Using radial grid of 1151 points,  3 beta functions with: 
                l(1) =   0
                l(2) =   0
                l(3) =   1

     atomic species   valence    mass     pseudopotential
        Zn             2.00    65.38000     Zn( 1.00)
        S              6.00    32.06000     S ( 1.00)

     24 Sym. Ops. (no inversion) found



   Cartesian axes

     site n.     atom                  positions (alat units)
         1           Zn  tau(   1) = (   0.0000000   0.0000000   0.0000000  )
         2           S   tau(   2) = (   0.2500000   0.2500000   0.2500000  )

     number of k points=    29
                       cart. coord. in units 2pi/alat
        k(    1) = (   0.0000000   0.0000000   0.0000000), wk =   0.0039062
        k(    2) = (  -0.1250000   0.1250000  -0.1250000), wk =   0.0312500
        k(    3) = (  -0.2500000   0.2500000  -0.2500000), wk =   0.0312500
        k(    4) = (  -0.3750000   0.3750000  -0.3750000), wk =   0.0312500
        k(    5) = (   0.5000000  -0.5000000   0.5000000), wk =   0.0156250
        k(    6) = (   0.0000000   0.2500000   0.0000000), wk =   0.0234375
        k(    7) = (  -0.1250000   0.3750000  -0.1250000), wk =   0.0937500
        k(    8) = (  -0.2500000   0.5000000  -0.2500000), wk =   0.0937500
        k(    9) = (   0.6250000  -0.3750000   0.6250000), wk =   0.0937500
        k(   10) = (   0.5000000  -0.2500000   0.5000000), wk =   0.0937500
        k(   11) = (   0.3750000  -0.1250000   0.3750000), wk =   0.0937500
        k(   12) = (   0.2500000   0.0000000   0.2500000), wk =   0.0468750
        k(   13) = (   0.0000000   0.5000000   0.0000000), wk =   0.0234375
        k(   14) = (  -0.1250000   0.6250000  -0.1250000), wk =   0.0937500
        k(   15) = (   0.7500000  -0.2500000   0.7500000), wk =   0.0937500
        k(   16) = (   0.6250000  -0.1250000   0.6250000), wk =   0.0937500
        k(   17) = (   0.5000000   0.0000000   0.5000000), wk =   0.0468750
        k(   18) = (   0.0000000   0.7500000   0.0000000), wk =   0.0234375
        k(   19) = (   0.8750000  -0.1250000   0.8750000), wk =   0.0937500
        k(   20) = (   0.7500000   0.0000000   0.7500000), wk =   0.0468750
        k(   21) = (   0.0000000  -1.0000000   0.0000000), wk =   0.0117188
        k(   22) = (  -0.2500000   0.5000000   0.0000000), wk =   0.0937500
        k(   23) = (   0.6250000  -0.3750000   0.8750000), wk =   0.1875000
        k(   24) = (   0.5000000  -0.2500000   0.7500000), wk =   0.0937500
        k(   25) = (   0.7500000  -0.2500000   1.0000000), wk =   0.0937500
        k(   26) = (   0.6250000  -0.1250000   0.8750000), wk =   0.1875000
        k(   27) = (   0.5000000   0.0000000   0.7500000), wk =   0.0937500
        k(   28) = (  -0.2500000  -1.0000000   0.0000000), wk =   0.0468750
        k(   29) = (  -0.5000000  -1.0000000   0.0000000), wk =   0.0234375

     Dense  grid:    21331 G-vectors     FFT dimensions: (  40,  40,  40)

     Estimated max dynamical RAM per process >      23.70 MB

     Initial potential from superposition of free atoms

     starting charge       6.0000, renormalised to       8.0000
     Starting wfcs are   18 randomized atomic wfcs

     total cpu time spent up to now is        0.9 secs

     Self-consistent Calculation

     iteration #  1     ecut=    70.00 Ry     beta= 0.70
     Davidson diagonalization with overlap
     ethr =  1.00E-02,  avg # of iterations =  2.0

     total cpu time spent up to now is        1.4 secs

     total energy              =     -22.66988239 Ry
     estimated scf accuracy    <       0.64803704 Ry

     iteration #  2     ecut=    70.00 Ry     beta= 0.70
     Davidson diagonalization with overlap
     ethr =  8.10E-03,  avg # of iterations =  2.0

     total cpu time spent up to now is        2.0 secs

     total energy              =     -22.87480039 Ry
     estimated scf accuracy    <       0.12450807 Ry

     iteration #  3     ecut=    70.00 Ry     beta= 0.70
     Davidson diagonalization with overlap
     ethr =  1.56E-03,  avg # of iterations =  2.0

     negative rho (up, down):  4.443E-08 0.000E+00

     total cpu time spent up to now is        2.5 secs

     total energy              =     -22.88832419 Ry
     estimated scf accuracy    <       0.00372536 Ry

     iteration #  4     ecut=    70.00 Ry     beta= 0.70
     Davidson diagonalization with overlap
     ethr =  4.66E-05,  avg # of iterations =  2.3

     total cpu time spent up to now is        3.0 secs

     total energy              =     -22.88978509 Ry
     estimated scf accuracy    <       0.00235099 Ry

     iteration #  5     ecut=    70.00 Ry     beta= 0.70
     Davidson diagonalization with overlap
     ethr =  2.94E-05,  avg # of iterations =  1.3

     total cpu time spent up to now is        3.4 secs

     total energy              =     -22.88987914 Ry
     estimated scf accuracy    <       0.00022034 Ry

     iteration #  6     ecut=    70.00 Ry     beta= 0.70
     Davidson diagonalization with overlap
     ethr =  2.75E-06,  avg # of iterations =  2.5

     total cpu time spent up to now is        4.0 secs

     total energy              =     -22.88995615 Ry
     estimated scf accuracy    <       0.00000025 Ry

     iteration #  7     ecut=    70.00 Ry     beta= 0.70
     Davidson diagonalization with overlap
     ethr =  3.10E-09,  avg # of iterations =  6.6

     total cpu time spent up to now is        4.9 secs

     total energy              =     -22.88995833 Ry
     estimated scf accuracy    <       0.00000075 Ry

     iteration #  8     ecut=    70.00 Ry     beta= 0.70
     Davidson diagonalization with overlap
     ethr =  3.10E-09,  avg # of iterations =  2.1

     total cpu time spent up to now is        5.5 secs

     total energy              =     -22.88995845 Ry
     estimated scf accuracy    <       0.00000001 Ry

     iteration #  9     ecut=    70.00 Ry     beta= 0.70
     Davidson diagonalization with overlap
     ethr =  1.59E-10,  avg # of iterations =  2.3

     total cpu time spent up to now is        6.0 secs

     End of self-consistent calculation

          k = 0.0000 0.0000 0.0000 (  2685 PWs)   bands (ev):

   -10.0701   2.3649   2.3649   2.3649

          k =-0.1250 0.1250-0.1250 (  2691 PWs)   bands (ev):

    -9.9456   1.2509   2.2460   2.2460

          k =-0.2500 0.2500-0.2500 (  2656 PWs)   bands (ev):

    -9.6068  -0.4870   1.9892   1.9892

          k =-0.3750 0.3750-0.3750 (  2659 PWs)   bands (ev):

    -9.1911  -1.8843   1.7651   1.7651

          k = 0.5000-0.5000 0.5000 (  2638 PWs)   bands (ev):

    -8.9849  -2.4379   1.6798   1.6798

          k = 0.0000 0.2500 0.0000 (  2689 PWs)   bands (ev):

    -9.9042   1.2653   2.0130   2.0130

          k =-0.1250 0.3750-0.1250 (  2658 PWs)   bands (ev):

    -9.6357  -0.0399   1.6963   1.7473

          k =-0.2500 0.5000-0.2500 (  2673 PWs)   bands (ev):

    -9.2362  -1.4414   1.3692   1.4859

          k = 0.6250-0.3750 0.6250 (  2652 PWs)   bands (ev):

    -8.9387  -2.2515   1.0468   1.4734

          k = 0.5000-0.2500 0.5000 (  2654 PWs)   bands (ev):

    -9.0085  -2.0712   0.9314   1.6580

          k = 0.3750-0.1250 0.3750 (  2657 PWs)   bands (ev):

    -9.3754  -1.0139   1.1005   1.9592

          k = 0.2500 0.0000 0.2500 (  2643 PWs)   bands (ev):

    -9.7486   0.3401   1.6139   2.2174

          k = 0.0000 0.5000 0.0000 (  2650 PWs)   bands (ev):

    -9.4523  -0.3302   1.3094   1.3094

          k =-0.1250 0.6250-0.1250 (  2656 PWs)   bands (ev):

    -9.1221  -1.2094   0.8147   1.0536

          k = 0.7500-0.2500 0.7500 (  2654 PWs)   bands (ev):

    -8.8175  -1.8824   0.1624   1.0366

          k = 0.6250-0.1250 0.6250 (  2654 PWs)   bands (ev):

    -8.7743  -1.9370  -0.2168   1.2620

          k = 0.5000 0.0000 0.5000 (  2650 PWs)   bands (ev):

    -9.0316  -1.4908   0.0547   1.6366

          k = 0.0000 0.7500 0.0000 (  2658 PWs)   bands (ev):

    -8.8956  -1.6065   0.7329   0.7329

          k = 0.8750-0.1250 0.8750 (  2658 PWs)   bands (ev):

    -8.6800  -1.9464   0.1923   0.6613

          k = 0.7500 0.0000 0.7500 (  2624 PWs)   bands (ev):

    -8.6271  -1.8838  -0.4998   0.8633

          k = 0.0000-1.0000 0.0000 (  2698 PWs)   bands (ev):

    -8.6172  -2.1284   0.5191   0.5191

          k =-0.2500 0.5000 0.0000 (  2653 PWs)   bands (ev):

    -9.3324  -0.8266   0.8537   1.6089

          k = 0.6250-0.3750 0.8750 (  2658 PWs)   bands (ev):

    -8.9707  -1.6893   0.3346   1.2962

          k = 0.5000-0.2500 0.7500 (  2660 PWs)   bands (ev):

    -8.7967  -2.0826   0.1959   1.1381

          k = 0.7500-0.2500 1.0000 (  2664 PWs)   bands (ev):

    -8.8380  -1.6647   0.2808   0.7219

          k = 0.6250-0.1250 0.8750 (  2649 PWs)   bands (ev):

    -8.6545  -1.8492  -0.2937   0.5837

          k = 0.5000 0.0000 0.7500 (  2648 PWs)   bands (ev):

    -8.7169  -1.7686  -0.4207   0.8639

          k =-0.2500-1.0000 0.0000 (  2648 PWs)   bands (ev):

    -8.6006  -1.9807   0.1295   0.2736

          k =-0.5000-1.0000 0.0000 (  2656 PWs)   bands (ev):

    -8.5839  -1.7806  -0.2804   0.0589

     highest occupied level (ev):     2.3649

!    total energy              =     -22.88995845 Ry
     estimated scf accuracy    <          5.1E-09 Ry

     The total energy is the sum of the following terms:
     one-electron contribution =      -1.15758759 Ry
     hartree contribution      =       3.49069625 Ry
     xc contribution           =      -5.43838474 Ry
     ewald contribution        =     -19.78468237 Ry

     convergence has been achieved in   9 iterations

     Writing all to output data dir ./SCRATCH/zns.save/

     init_run     :      0.89s CPU      0.89s WALL (       1 calls)
     electrons    :      4.86s CPU      5.03s WALL (       1 calls)

     Called by init_run:
     wfcinit      :      0.73s CPU      0.73s WALL (       1 calls)
     potinit      :      0.02s CPU      0.01s WALL (       1 calls)
     hinit0       :      0.12s CPU      0.13s WALL (       1 calls)

     Called by electrons:
     c_bands      :      4.12s CPU      4.27s WALL (       9 calls)
     sum_band     :      0.70s CPU      0.70s WALL (       9 calls)
     v_of_rho     :      0.03s CPU      0.03s WALL (      10 calls)
     mix_rho      :      0.00s CPU      0.03s WALL (       9 calls)

     Called by c_bands:
     init_us_2    :      0.33s CPU      0.27s WALL (     551 calls)
     init_us_2:cp :      0.33s CPU      0.27s WALL (     551 calls)
     cegterg      :      3.69s CPU      3.92s WALL (     261 calls)

     Called by *egterg:
     cdiaghg      :      0.00s CPU      0.02s WALL (     932 calls)
     h_psi        :      4.17s CPU      4.20s WALL (     961 calls)
     g_psi        :      0.02s CPU      0.02s WALL (     671 calls)

     Called by h_psi:
     h_psi:calbec :      0.12s CPU      0.21s WALL (     961 calls)
     vloc_psi     :      3.92s CPU      3.83s WALL (     961 calls)
     add_vuspsi   :      0.12s CPU      0.14s WALL (     961 calls)

     General routines
     calbec       :      0.12s CPU      0.20s WALL (     961 calls)
     fft          :      0.03s CPU      0.02s WALL (      29 calls)
     ffts         :      0.02s CPU      0.01s WALL (       9 calls)
     fftw         :      4.09s CPU      3.98s WALL (    8516 calls)


     PWSCF        :      5.78s CPU      5.97s WALL


   This run was terminated on:  11:26: 2  26May2024            

=------------------------------------------------------------------------------=
   JOB DONE.
=------------------------------------------------------------------------------=
