
     Program PWSCF v.7.2 starts on  8Jun2024 at 10:31:24 

     This program is part of the open-source Quantum ESPRESSO suite
     for quantum simulation of materials; please cite
         "P. Giannozzi et al., J. Phys.:Condens. Matter 21 395502 (2009);
         "P. Giannozzi et al., J. Phys.:Condens. Matter 29 465901 (2017);
         "P. Giannozzi et al., J. Chem. Phys. 152 154105 (2020);
          URL http://www.quantum-espresso.org", 
     in publications or presentations arising from this work. More details at
     http://www.quantum-espresso.org/quote

     Serial version
     9166 MiB available memory on the printing compute node when the environment starts

     Waiting for input...
     Reading input from standard input

     Current dimensions of program PWSCF are:
     Max number of different atomic species (ntypx) = 10
     Max number of k-points (npk) =  40000
     Max angular momentum in pseudopotentials (lmaxx) =  4


     G-vector sticks info
     --------------------
     sticks:   dense  smooth     PW     G-vecs:    dense   smooth      PW
     Sum        1045    1045    313                22419    22419    3695

     Using Slab Decomposition



     bravais-lattice index     =            2
     lattice parameter (alat)  =      10.4472  a.u.
     unit-cell volume          =     285.0591 (a.u.)^3
     number of atoms/cell      =            2
     number of atomic types    =            2
     number of electrons       =        26.00
     number of Kohn-Sham states=           13
     kinetic-energy cutoff     =      70.0000  Ry
     charge density cutoff     =     280.0000  Ry
     scf convergence threshold =      1.0E-08
     mixing beta               =       0.7000
     number of iterations used =            8  plain     mixing
     Exchange-correlation= PBE
                           (   1   4   3   4   0   0   0)

     celldm(1)=  10.447161  celldm(2)=   0.000000  celldm(3)=   0.000000
     celldm(4)=   0.000000  celldm(5)=   0.000000  celldm(6)=   0.000000

     crystal axes: (cart. coord. in units of alat)
               a(1) = (  -0.500000   0.000000   0.500000 )  
               a(2) = (   0.000000   0.500000   0.500000 )  
               a(3) = (  -0.500000   0.500000   0.000000 )  

     reciprocal axes: (cart. coord. in units 2 pi/alat)
               b(1) = ( -1.000000 -1.000000  1.000000 )  
               b(2) = (  1.000000  1.000000  1.000000 )  
               b(3) = ( -1.000000  1.000000 -1.000000 )  


     PseudoPot. # 1 for Zn read from file:
     /home/paolo/project_labqsm/pseudopotentials/Zn_ONCV_PBE-1.2.upf
     MD5 check sum: 732f41c0cd6489a4b50a33b4ec99a2d3
     Pseudo is Norm-conserving, Zval = 20.0
     Generated using ONCVPSP code by D. R. Hamann
     Using radial grid of  602 points,  6 beta functions with: 
                l(1) =   0
                l(2) =   0
                l(3) =   1
                l(4) =   1
                l(5) =   2
                l(6) =   2

     PseudoPot. # 2 for S  read from file:
     /home/paolo/project_labqsm/pseudopotentials/S_ONCV_PBE-1.2.upf
     MD5 check sum: f9d020296ee6110346977bfd66d424f6
     Pseudo is Norm-conserving, Zval =  6.0
     Generated using ONCVPSP code by D. R. Hamann
     Using radial grid of  602 points,  4 beta functions with: 
                l(1) =   0
                l(2) =   0
                l(3) =   1
                l(4) =   1

     atomic species   valence    mass     pseudopotential
        Zn            20.00    65.38000     Zn( 1.00)
        S              6.00    32.06000     S ( 1.00)

     24 Sym. Ops. (no inversion) found



   Cartesian axes

     site n.     atom                  positions (alat units)
         1           Zn  tau(   1) = (   0.0000000   0.0000000   0.0000000  )
         2           S   tau(   2) = (   0.2500000   0.2500000   0.2500000  )

     number of k points=    29
                       cart. coord. in units 2pi/alat
        k(    1) = (   0.0000000   0.0000000   0.0000000), wk =   0.0039062
        k(    2) = (  -0.1250000   0.1250000  -0.1250000), wk =   0.0312500
        k(    3) = (  -0.2500000   0.2500000  -0.2500000), wk =   0.0312500
        k(    4) = (  -0.3750000   0.3750000  -0.3750000), wk =   0.0312500
        k(    5) = (   0.5000000  -0.5000000   0.5000000), wk =   0.0156250
        k(    6) = (   0.0000000   0.2500000   0.0000000), wk =   0.0234375
        k(    7) = (  -0.1250000   0.3750000  -0.1250000), wk =   0.0937500
        k(    8) = (  -0.2500000   0.5000000  -0.2500000), wk =   0.0937500
        k(    9) = (   0.6250000  -0.3750000   0.6250000), wk =   0.0937500
        k(   10) = (   0.5000000  -0.2500000   0.5000000), wk =   0.0937500
        k(   11) = (   0.3750000  -0.1250000   0.3750000), wk =   0.0937500
        k(   12) = (   0.2500000   0.0000000   0.2500000), wk =   0.0468750
        k(   13) = (   0.0000000   0.5000000   0.0000000), wk =   0.0234375
        k(   14) = (  -0.1250000   0.6250000  -0.1250000), wk =   0.0937500
        k(   15) = (   0.7500000  -0.2500000   0.7500000), wk =   0.0937500
        k(   16) = (   0.6250000  -0.1250000   0.6250000), wk =   0.0937500
        k(   17) = (   0.5000000   0.0000000   0.5000000), wk =   0.0468750
        k(   18) = (   0.0000000   0.7500000   0.0000000), wk =   0.0234375
        k(   19) = (   0.8750000  -0.1250000   0.8750000), wk =   0.0937500
        k(   20) = (   0.7500000   0.0000000   0.7500000), wk =   0.0468750
        k(   21) = (   0.0000000  -1.0000000   0.0000000), wk =   0.0117188
        k(   22) = (  -0.2500000   0.5000000   0.0000000), wk =   0.0937500
        k(   23) = (   0.6250000  -0.3750000   0.8750000), wk =   0.1875000
        k(   24) = (   0.5000000  -0.2500000   0.7500000), wk =   0.0937500
        k(   25) = (   0.7500000  -0.2500000   1.0000000), wk =   0.0937500
        k(   26) = (   0.6250000  -0.1250000   0.8750000), wk =   0.1875000
        k(   27) = (   0.5000000   0.0000000   0.7500000), wk =   0.0937500
        k(   28) = (  -0.2500000  -1.0000000   0.0000000), wk =   0.0468750
        k(   29) = (  -0.5000000  -1.0000000   0.0000000), wk =   0.0234375

     Dense  grid:    22419 G-vectors     FFT dimensions: (  40,  40,  40)

     Estimated max dynamical RAM per process >      37.25 MB

     Initial potential from superposition of free atoms

     starting charge      25.9670, renormalised to      26.0000
     Starting wfcs are random

     total cpu time spent up to now is        0.7 secs

     Self-consistent Calculation

     iteration #  1     ecut=    70.00 Ry     beta= 0.70
     Davidson diagonalization with overlap
     ethr =  1.00E-02,  avg # of iterations = 12.8

     total cpu time spent up to now is        6.3 secs

     total energy              =    -420.13973073 Ry
     estimated scf accuracy    <       0.48280975 Ry

     iteration #  2     ecut=    70.00 Ry     beta= 0.70
     Davidson diagonalization with overlap
     ethr =  1.86E-03,  avg # of iterations =  3.7

     total cpu time spent up to now is        8.5 secs

     total energy              =    -420.77546193 Ry
     estimated scf accuracy    <       0.67865646 Ry

     iteration #  3     ecut=    70.00 Ry     beta= 0.70
     Davidson diagonalization with overlap
     ethr =  1.86E-03,  avg # of iterations =  2.0

     total cpu time spent up to now is       10.2 secs

     total energy              =    -420.82633152 Ry
     estimated scf accuracy    <       0.06125166 Ry

     iteration #  4     ecut=    70.00 Ry     beta= 0.70
     Davidson diagonalization with overlap
     ethr =  2.36E-04,  avg # of iterations =  2.2

     total cpu time spent up to now is       11.9 secs

     total energy              =    -420.90056529 Ry
     estimated scf accuracy    <       0.01547319 Ry

     iteration #  5     ecut=    70.00 Ry     beta= 0.70
     Davidson diagonalization with overlap
     ethr =  5.95E-05,  avg # of iterations =  2.0

     total cpu time spent up to now is       13.6 secs

     total energy              =    -420.90102320 Ry
     estimated scf accuracy    <       0.00222224 Ry

     iteration #  6     ecut=    70.00 Ry     beta= 0.70
     Davidson diagonalization with overlap
     ethr =  8.55E-06,  avg # of iterations =  3.1

     total cpu time spent up to now is       15.4 secs

     total energy              =    -420.90207897 Ry
     estimated scf accuracy    <       0.00051592 Ry

     iteration #  7     ecut=    70.00 Ry     beta= 0.70
     Davidson diagonalization with overlap
     ethr =  1.98E-06,  avg # of iterations =  1.9

     total cpu time spent up to now is       16.9 secs

     total energy              =    -420.90197270 Ry
     estimated scf accuracy    <       0.00017169 Ry

     iteration #  8     ecut=    70.00 Ry     beta= 0.70
     Davidson diagonalization with overlap
     ethr =  6.60E-07,  avg # of iterations =  2.9

     total cpu time spent up to now is       18.8 secs

     total energy              =    -420.90204274 Ry
     estimated scf accuracy    <       0.00006103 Ry

     iteration #  9     ecut=    70.00 Ry     beta= 0.70
     Davidson diagonalization with overlap
     ethr =  2.35E-07,  avg # of iterations =  2.0

     total cpu time spent up to now is       20.4 secs

     total energy              =    -420.90205157 Ry
     estimated scf accuracy    <       0.00000115 Ry

     iteration # 10     ecut=    70.00 Ry     beta= 0.70
     Davidson diagonalization with overlap
     ethr =  4.41E-09,  avg # of iterations =  3.4

     total cpu time spent up to now is       22.5 secs

     total energy              =    -420.90205255 Ry
     estimated scf accuracy    <       0.00000088 Ry

     iteration # 11     ecut=    70.00 Ry     beta= 0.70
     Davidson diagonalization with overlap
     ethr =  3.37E-09,  avg # of iterations =  1.1

     total cpu time spent up to now is       23.8 secs

     total energy              =    -420.90205241 Ry
     estimated scf accuracy    <       0.00000035 Ry

     iteration # 12     ecut=    70.00 Ry     beta= 0.70
     Davidson diagonalization with overlap
     ethr =  1.33E-09,  avg # of iterations =  2.0

     total cpu time spent up to now is       25.5 secs

     End of self-consistent calculation

          k = 0.0000 0.0000 0.0000 (  2741 PWs)   bands (ev):

  -118.2079 -72.3751 -72.3751 -72.3751  -6.1412   0.4460   0.4460   0.4460
     0.8629   0.8629   6.5435   6.5435   6.5435

          k =-0.1250 0.1250-0.1250 (  2794 PWs)   bands (ev):

  -118.2079 -72.3751 -72.3751 -72.3751  -6.0380   0.4527   0.4640   0.4640
     0.8616   0.8616   5.4696   6.4139   6.4139

          k =-0.2500 0.2500-0.2500 (  2809 PWs)   bands (ev):

  -118.2079 -72.3752 -72.3751 -72.3751  -5.7704   0.5035   0.5035   0.5112
     0.8645   0.8645   3.8666   6.1290   6.1290

          k =-0.3750 0.3750-0.3750 (  2821 PWs)   bands (ev):

  -118.2079 -72.3752 -72.3751 -72.3751  -5.4704   0.5348   0.5348   0.7235
     0.8785   0.8785   2.4645   5.8733   5.8733

          k = 0.5000-0.5000 0.5000 (  2824 PWs)   bands (ev):

  -118.2079 -72.3752 -72.3751 -72.3751  -5.3343   0.5447   0.5447   0.8882
     0.8882   1.0433   1.6930   5.7737   5.7737

          k = 0.0000 0.2500 0.0000 (  2794 PWs)   bands (ev):

  -118.2079 -72.3751 -72.3751 -72.3751  -6.0036   0.4355   0.4799   0.4799
     0.8497   0.8719   5.4848   6.1849   6.1849

          k =-0.1250 0.3750-0.1250 (  2810 PWs)   bands (ev):

  -118.2079 -72.3752 -72.3751 -72.3751  -5.7901   0.4532   0.5218   0.5254
     0.8439   0.8803   4.2906   5.8480   5.9057

          k =-0.2500 0.5000-0.2500 (  2821 PWs)   bands (ev):

  -118.2079 -72.3752 -72.3751 -72.3751  -5.4969   0.5180   0.5588   0.6381
     0.8675   0.8903   2.9284   5.5231   5.6047

          k = 0.6250-0.3750 0.6250 (  2824 PWs)   bands (ev):

  -118.2079 -72.3752 -72.3752 -72.3752  -5.2991   0.5457   0.5716   0.8345
     0.8907   1.0198   1.9299   5.2017   5.5700

          k = 0.5000-0.2500 0.5000 (  2822 PWs)   bands (ev):

  -118.2079 -72.3752 -72.3752 -72.3751  -5.3447   0.5491   0.5611   0.8158
     0.8709   0.9366   2.1912   5.0933   5.7571

          k = 0.3750-0.1250 0.3750 (  2824 PWs)   bands (ev):

  -118.2079 -72.3752 -72.3752 -72.3751  -5.5970   0.5282   0.5308   0.5759
     0.8510   0.8887   3.3567   5.2738   6.0792

          k = 0.2500 0.0000 0.2500 (  2818 PWs)   bands (ev):

  -118.2079 -72.3752 -72.3751 -72.3751  -5.8794   0.4668   0.4858   0.5025
     0.8505   0.8727   4.6350   5.7909   6.3636

          k = 0.0000 0.5000 0.0000 (  2826 PWs)   bands (ev):

  -118.2079 -72.3752 -72.3752 -72.3752  -5.6465   0.4295   0.5721   0.5721
     0.8329   0.8937   4.0577   5.4477   5.4477

          k =-0.1250 0.6250-0.1250 (  2812 PWs)   bands (ev):

  -118.2079 -72.3752 -72.3752 -72.3752  -5.4072   0.4737   0.6206   0.6367
     0.8677   0.9034   3.1998   4.9670   5.1618

          k = 0.7500-0.2500 0.7500 (  2816 PWs)   bands (ev):

  -118.2079 -72.3752 -72.3752 -72.3752  -5.2085   0.5371   0.6392   0.7465
     0.8990   1.0196   2.3615   4.3804   5.1245

          k = 0.6250-0.1250 0.6250 (  2816 PWs)   bands (ev):

  -118.2079 -72.3752 -72.3752 -72.3752  -5.1859   0.5561   0.6238   0.8267
     0.8737   1.0764   2.1954   4.0453   5.3524

          k = 0.5000 0.0000 0.5000 (  2840 PWs)   bands (ev):

  -118.2079 -72.3752 -72.3752 -72.3752  -5.3550   0.5573   0.5796   0.7239
     0.8515   0.9214   2.8139   4.2906   5.7408

          k = 0.0000 0.7500 0.0000 (  2814 PWs)   bands (ev):

  -118.2079 -72.3752 -72.3752 -72.3752  -5.2461   0.4563   0.6830   0.6830
     0.9052   0.9155   2.8487   4.8120   4.8120

          k = 0.8750-0.1250 0.8750 (  2826 PWs)   bands (ev):

  -118.2079 -72.3752 -72.3752 -72.3752  -5.1087   0.4972   0.7085   0.7264
     0.9142   1.0405   2.3974   4.3173   4.7229

          k = 0.7500 0.0000 0.7500 (  2838 PWs)   bands (ev):

  -118.2079 -72.3752 -72.3752 -72.3752  -5.0848   0.5412   0.6854   0.7808
     0.8923   1.1595   2.2479   3.7531   4.9352

          k = 0.0000-1.0000 0.0000 (  2794 PWs)   bands (ev):

  -118.2079 -72.3752 -72.3752 -72.3752  -5.0643   0.4715   0.7362   0.7362
     0.9245   1.0570   2.2506   4.5650   4.5650

          k =-0.2500 0.5000 0.0000 (  2817 PWs)   bands (ev):

  -118.2079 -72.3752 -72.3752 -72.3751  -5.5618   0.4897   0.5616   0.5905
     0.8469   0.8946   3.5510   5.0276   5.7412

          k = 0.6250-0.3750 0.8750 (  2818 PWs)   bands (ev):

  -118.2079 -72.3752 -72.3752 -72.3752  -5.3124   0.5521   0.5890   0.7314
     0.8800   0.9358   2.6103   4.5382   5.4150

          k = 0.5000-0.2500 0.7500 (  2826 PWs)   bands (ev):

  -118.2079 -72.3752 -72.3752 -72.3752  -5.2017   0.5619   0.6057   0.8276
     0.8750   1.1001   2.0417   4.4188   5.2472

          k = 0.7500-0.2500 1.0000 (  2804 PWs)   bands (ev):

  -118.2079 -72.3752 -72.3752 -72.3752  -5.2152   0.5188   0.6472   0.7145
     0.9019   0.9638   2.6832   4.4348   4.8421

          k = 0.6250-0.1250 0.8750 (  2819 PWs)   bands (ev):

  -118.2079 -72.3752 -72.3752 -72.3752  -5.1033   0.5602   0.6633   0.7894
     0.8779   1.1368   2.2863   3.9552   4.7019

          k = 0.5000 0.0000 0.7500 (  2820 PWs)   bands (ev):

  -118.2079 -72.3752 -72.3752 -72.3752  -5.1460   0.5723   0.6334   0.8174
     0.8617   1.0862   2.3634   3.8553   4.9865

          k =-0.2500-1.0000 0.0000 (  2826 PWs)   bands (ev):

  -118.2079 -72.3752 -72.3752 -72.3752  -5.0619   0.5248   0.7057   0.7556
     0.9024   1.1305   2.2632   4.3193   4.3321

          k =-0.5000-1.0000 0.0000 (  2832 PWs)   bands (ev):

  -118.2079 -72.3752 -72.3752 -72.3752  -5.0594   0.5760   0.6827   0.8270
     0.8332   1.2004   2.2789   4.0870   4.1182

     highest occupied level (ev):     6.5435

!    total energy              =    -420.90205247 Ry
     estimated scf accuracy    <          7.9E-09 Ry

     The total energy is the sum of the following terms:
     one-electron contribution =    -346.12614038 Ry
     hartree contribution      =     175.94385884 Ry
     xc contribution           =     -40.95326455 Ry
     ewald contribution        =    -209.76650638 Ry

     convergence has been achieved in  12 iterations

     Writing all to output data dir ./SCRATCH/zns.save/

     init_run     :      0.66s CPU      0.66s WALL (       1 calls)
     electrons    :     24.56s CPU     24.84s WALL (       1 calls)

     Called by init_run:
     wfcinit      :      0.55s CPU      0.56s WALL (       1 calls)
     potinit      :      0.05s CPU      0.05s WALL (       1 calls)
     hinit0       :      0.03s CPU      0.03s WALL (       1 calls)

     Called by electrons:
     c_bands      :     21.77s CPU     21.96s WALL (      12 calls)
     sum_band     :      2.58s CPU      2.56s WALL (      12 calls)
     v_of_rho     :      0.25s CPU      0.31s WALL (      13 calls)
     mix_rho      :      0.02s CPU      0.04s WALL (      12 calls)

     Called by c_bands:
     init_us_2    :      0.47s CPU      0.42s WALL (     725 calls)
     init_us_2:cp :      0.45s CPU      0.41s WALL (     725 calls)
     cegterg      :     20.97s CPU     21.24s WALL (     348 calls)

     Called by *egterg:
     cdiaghg      :      0.22s CPU      0.19s WALL (    1482 calls)
     h_psi        :     17.64s CPU     17.80s WALL (    1511 calls)
     g_psi        :      0.06s CPU      0.08s WALL (    1134 calls)

     Called by h_psi:
     h_psi:calbec :      1.42s CPU      1.19s WALL (    1511 calls)
     vloc_psi     :     15.48s CPU     15.69s WALL (    1511 calls)
     add_vuspsi   :      0.72s CPU      0.85s WALL (    1511 calls)

     General routines
     calbec       :      1.42s CPU      1.18s WALL (    1511 calls)
     fft          :      0.08s CPU      0.10s WALL (     129 calls)
     ffts         :      0.00s CPU      0.01s WALL (      12 calls)
     fftw         :     16.02s CPU     16.36s WALL (   34736 calls)


     PWSCF        :     25.22s CPU     25.54s WALL


   This run was terminated on:  10:31:50   8Jun2024            

=------------------------------------------------------------------------------=
   JOB DONE.
=------------------------------------------------------------------------------=
