
     Program PWSCF v.7.2 starts on 26May2024 at 11:25:49 

     This program is part of the open-source Quantum ESPRESSO suite
     for quantum simulation of materials; please cite
         "P. Giannozzi et al., J. Phys.:Condens. Matter 21 395502 (2009);
         "P. Giannozzi et al., J. Phys.:Condens. Matter 29 465901 (2017);
         "P. Giannozzi et al., J. Chem. Phys. 152 154105 (2020);
          URL http://www.quantum-espresso.org", 
     in publications or presentations arising from this work. More details at
     http://www.quantum-espresso.org/quote

     Serial version
     9803 MiB available memory on the printing compute node when the environment starts

     Waiting for input...
     Reading input from standard input

     Current dimensions of program PWSCF are:
     Max number of different atomic species (ntypx) = 10
     Max number of k-points (npk) =  40000
     Max angular momentum in pseudopotentials (lmaxx) =  4


     G-vector sticks info
     --------------------
     sticks:   dense  smooth     PW     G-vecs:    dense   smooth      PW
     Sum         733     733    223                12891    12891    2133

     Using Slab Decomposition



     bravais-lattice index     =            2
     lattice parameter (alat)  =      10.2423  a.u.
     unit-cell volume          =     268.6175 (a.u.)^3
     number of atoms/cell      =            2
     number of atomic types    =            2
     number of electrons       =         8.00
     number of Kohn-Sham states=            4
     kinetic-energy cutoff     =      50.0000  Ry
     charge density cutoff     =     200.0000  Ry
     scf convergence threshold =      1.0E-08
     mixing beta               =       0.7000
     number of iterations used =            8  plain     mixing
     Exchange-correlation= SLA-PZ-NOGX-NOGC
                           (   1   1   0   0   0   0   0)

     celldm(1)=  10.242315  celldm(2)=   0.000000  celldm(3)=   0.000000
     celldm(4)=   0.000000  celldm(5)=   0.000000  celldm(6)=   0.000000

     crystal axes: (cart. coord. in units of alat)
               a(1) = (  -0.500000   0.000000   0.500000 )  
               a(2) = (   0.000000   0.500000   0.500000 )  
               a(3) = (  -0.500000   0.500000   0.000000 )  

     reciprocal axes: (cart. coord. in units 2 pi/alat)
               b(1) = ( -1.000000 -1.000000  1.000000 )  
               b(2) = (  1.000000  1.000000  1.000000 )  
               b(3) = ( -1.000000  1.000000 -1.000000 )  


     PseudoPot. # 1 for Zn read from file:
     /home/paolo/project_labqsm/pseudopotentials/Zn.pz-hgh.UPF
     MD5 check sum: c1979979258da2eeca1fc2dcb474678d
     Pseudo is Norm-conserving, Zval =  2.0
     Generated in analytical, separable form
     Using radial grid of 1201 points,  6 beta functions with: 
                l(1) =   0
                l(2) =   0
                l(3) =   0
                l(4) =   1
                l(5) =   1
                l(6) =   2

     PseudoPot. # 2 for S  read from file:
     /home/paolo/project_labqsm/pseudopotentials/S.pz-hgh.UPF
     MD5 check sum: a0679cb0a74c01c481c24d5fd31ffa9b
     Pseudo is Norm-conserving, Zval =  6.0
     Generated in analytical, separable form
     Using radial grid of 1151 points,  3 beta functions with: 
                l(1) =   0
                l(2) =   0
                l(3) =   1

     atomic species   valence    mass     pseudopotential
        Zn             2.00    65.38000     Zn( 1.00)
        S              6.00    32.06000     S ( 1.00)

     24 Sym. Ops. (no inversion) found



   Cartesian axes

     site n.     atom                  positions (alat units)
         1           Zn  tau(   1) = (   0.0000000   0.0000000   0.0000000  )
         2           S   tau(   2) = (   0.2500000   0.2500000   0.2500000  )

     number of k points=    29
                       cart. coord. in units 2pi/alat
        k(    1) = (   0.0000000   0.0000000   0.0000000), wk =   0.0039062
        k(    2) = (  -0.1250000   0.1250000  -0.1250000), wk =   0.0312500
        k(    3) = (  -0.2500000   0.2500000  -0.2500000), wk =   0.0312500
        k(    4) = (  -0.3750000   0.3750000  -0.3750000), wk =   0.0312500
        k(    5) = (   0.5000000  -0.5000000   0.5000000), wk =   0.0156250
        k(    6) = (   0.0000000   0.2500000   0.0000000), wk =   0.0234375
        k(    7) = (  -0.1250000   0.3750000  -0.1250000), wk =   0.0937500
        k(    8) = (  -0.2500000   0.5000000  -0.2500000), wk =   0.0937500
        k(    9) = (   0.6250000  -0.3750000   0.6250000), wk =   0.0937500
        k(   10) = (   0.5000000  -0.2500000   0.5000000), wk =   0.0937500
        k(   11) = (   0.3750000  -0.1250000   0.3750000), wk =   0.0937500
        k(   12) = (   0.2500000   0.0000000   0.2500000), wk =   0.0468750
        k(   13) = (   0.0000000   0.5000000   0.0000000), wk =   0.0234375
        k(   14) = (  -0.1250000   0.6250000  -0.1250000), wk =   0.0937500
        k(   15) = (   0.7500000  -0.2500000   0.7500000), wk =   0.0937500
        k(   16) = (   0.6250000  -0.1250000   0.6250000), wk =   0.0937500
        k(   17) = (   0.5000000   0.0000000   0.5000000), wk =   0.0468750
        k(   18) = (   0.0000000   0.7500000   0.0000000), wk =   0.0234375
        k(   19) = (   0.8750000  -0.1250000   0.8750000), wk =   0.0937500
        k(   20) = (   0.7500000   0.0000000   0.7500000), wk =   0.0468750
        k(   21) = (   0.0000000  -1.0000000   0.0000000), wk =   0.0117188
        k(   22) = (  -0.2500000   0.5000000   0.0000000), wk =   0.0937500
        k(   23) = (   0.6250000  -0.3750000   0.8750000), wk =   0.1875000
        k(   24) = (   0.5000000  -0.2500000   0.7500000), wk =   0.0937500
        k(   25) = (   0.7500000  -0.2500000   1.0000000), wk =   0.0937500
        k(   26) = (   0.6250000  -0.1250000   0.8750000), wk =   0.1875000
        k(   27) = (   0.5000000   0.0000000   0.7500000), wk =   0.0937500
        k(   28) = (  -0.2500000  -1.0000000   0.0000000), wk =   0.0468750
        k(   29) = (  -0.5000000  -1.0000000   0.0000000), wk =   0.0234375

     Dense  grid:    12891 G-vectors     FFT dimensions: (  36,  36,  36)

     Estimated max dynamical RAM per process >      15.52 MB

     Initial potential from superposition of free atoms

     starting charge       6.0000, renormalised to       8.0000
     Starting wfcs are   18 randomized atomic wfcs

     total cpu time spent up to now is        0.6 secs

     Self-consistent Calculation

     iteration #  1     ecut=    50.00 Ry     beta= 0.70
     Davidson diagonalization with overlap
     ethr =  1.00E-02,  avg # of iterations =  2.0

     total cpu time spent up to now is        0.9 secs

     total energy              =     -22.66767648 Ry
     estimated scf accuracy    <       0.64870361 Ry

     iteration #  2     ecut=    50.00 Ry     beta= 0.70
     Davidson diagonalization with overlap
     ethr =  8.11E-03,  avg # of iterations =  2.0

     total cpu time spent up to now is        1.2 secs

     total energy              =     -22.87252784 Ry
     estimated scf accuracy    <       0.12455020 Ry

     iteration #  3     ecut=    50.00 Ry     beta= 0.70
     Davidson diagonalization with overlap
     ethr =  1.56E-03,  avg # of iterations =  2.0

     negative rho (up, down):  6.083E-08 0.000E+00

     total cpu time spent up to now is        1.5 secs

     total energy              =     -22.88609608 Ry
     estimated scf accuracy    <       0.00371073 Ry

     iteration #  4     ecut=    50.00 Ry     beta= 0.70
     Davidson diagonalization with overlap
     ethr =  4.64E-05,  avg # of iterations =  2.3

     total cpu time spent up to now is        1.9 secs

     total energy              =     -22.88755161 Ry
     estimated scf accuracy    <       0.00235162 Ry

     iteration #  5     ecut=    50.00 Ry     beta= 0.70
     Davidson diagonalization with overlap
     ethr =  2.94E-05,  avg # of iterations =  1.3

     total cpu time spent up to now is        2.1 secs

     total energy              =     -22.88764817 Ry
     estimated scf accuracy    <       0.00021882 Ry

     iteration #  6     ecut=    50.00 Ry     beta= 0.70
     Davidson diagonalization with overlap
     ethr =  2.74E-06,  avg # of iterations =  2.6

     total cpu time spent up to now is        2.5 secs

     total energy              =     -22.88772461 Ry
     estimated scf accuracy    <       0.00000025 Ry

     iteration #  7     ecut=    50.00 Ry     beta= 0.70
     Davidson diagonalization with overlap
     ethr =  3.18E-09,  avg # of iterations =  6.6

     total cpu time spent up to now is        3.0 secs

     total energy              =     -22.88772649 Ry
     estimated scf accuracy    <       0.00000083 Ry

     iteration #  8     ecut=    50.00 Ry     beta= 0.70
     Davidson diagonalization with overlap
     ethr =  3.18E-09,  avg # of iterations =  2.6

     total cpu time spent up to now is        3.4 secs

     End of self-consistent calculation

          k = 0.0000 0.0000 0.0000 (  1639 PWs)   bands (ev):

   -10.0715   2.3687   2.3687   2.3687

          k =-0.1250 0.1250-0.1250 (  1594 PWs)   bands (ev):

    -9.9471   1.2544   2.2503   2.2503

          k =-0.2500 0.2500-0.2500 (  1603 PWs)   bands (ev):

    -9.6083  -0.4848   1.9934   1.9934

          k =-0.3750 0.3750-0.3750 (  1607 PWs)   bands (ev):

    -9.1927  -1.8824   1.7690   1.7690

          k = 0.5000-0.5000 0.5000 (  1622 PWs)   bands (ev):

    -8.9866  -2.4361   1.6833   1.6833

          k = 0.0000 0.2500 0.0000 (  1587 PWs)   bands (ev):

    -9.9056   1.2687   2.0173   2.0173

          k =-0.1250 0.3750-0.1250 (  1602 PWs)   bands (ev):

    -9.6372  -0.0375   1.7002   1.7513

          k =-0.2500 0.5000-0.2500 (  1598 PWs)   bands (ev):

    -9.2378  -1.4394   1.3730   1.4897

          k = 0.6250-0.3750 0.6250 (  1599 PWs)   bands (ev):

    -8.9404  -2.2495   1.0502   1.4772

          k = 0.5000-0.2500 0.5000 (  1600 PWs)   bands (ev):

    -9.0102  -2.0693   0.9348   1.6620

          k = 0.3750-0.1250 0.3750 (  1601 PWs)   bands (ev):

    -9.3770  -1.0118   1.1040   1.9634

          k = 0.2500 0.0000 0.2500 (  1592 PWs)   bands (ev):

    -9.7501   0.3427   1.6179   2.2218

          k = 0.0000 0.5000 0.0000 (  1612 PWs)   bands (ev):

    -9.4538  -0.3280   1.3129   1.3129

          k =-0.1250 0.6250-0.1250 (  1611 PWs)   bands (ev):

    -9.1238  -1.2074   0.8179   1.0569

          k = 0.7500-0.2500 0.7500 (  1609 PWs)   bands (ev):

    -8.8192  -1.8804   0.1652   1.0400

          k = 0.6250-0.1250 0.6250 (  1599 PWs)   bands (ev):

    -8.7760  -1.9349  -0.2141   1.2657

          k = 0.5000 0.0000 0.5000 (  1604 PWs)   bands (ev):

    -9.0332  -1.4888   0.0575   1.6406

          k = 0.0000 0.7500 0.0000 (  1608 PWs)   bands (ev):

    -8.8973  -1.6046   0.7363   0.7363

          k = 0.8750-0.1250 0.8750 (  1612 PWs)   bands (ev):

    -8.6817  -1.9445   0.1953   0.6645

          k = 0.7500 0.0000 0.7500 (  1608 PWs)   bands (ev):

    -8.6289  -1.8818  -0.4973   0.8668

          k = 0.0000-1.0000 0.0000 (  1588 PWs)   bands (ev):

    -8.6190  -2.1262   0.5226   0.5226

          k =-0.2500 0.5000 0.0000 (  1598 PWs)   bands (ev):

    -9.3340  -0.8244   0.8572   1.6129

          k = 0.6250-0.3750 0.8750 (  1606 PWs)   bands (ev):

    -8.9724  -1.6873   0.3376   1.2999

          k = 0.5000-0.2500 0.7500 (  1584 PWs)   bands (ev):

    -8.7984  -2.0804   0.1990   1.1419

          k = 0.7500-0.2500 1.0000 (  1613 PWs)   bands (ev):

    -8.8397  -1.6627   0.2837   0.7251

          k = 0.6250-0.1250 0.8750 (  1606 PWs)   bands (ev):

    -8.6563  -1.8471  -0.2910   0.5870

          k = 0.5000 0.0000 0.7500 (  1604 PWs)   bands (ev):

    -8.7187  -1.7665  -0.4181   0.8674

          k =-0.2500-1.0000 0.0000 (  1614 PWs)   bands (ev):

    -8.6024  -1.9787   0.1324   0.2766

          k =-0.5000-1.0000 0.0000 (  1604 PWs)   bands (ev):

    -8.5857  -1.7786  -0.2778   0.0620

     highest occupied level (ev):     2.3687

!    total energy              =     -22.88772666 Ry
     estimated scf accuracy    <          7.8E-09 Ry

     The total energy is the sum of the following terms:
     one-electron contribution =      -1.15439425 Ry
     hartree contribution      =       3.48895544 Ry
     xc contribution           =      -5.43760543 Ry
     ewald contribution        =     -19.78468242 Ry

     convergence has been achieved in   8 iterations

     Writing all to output data dir ./SCRATCH/zns.save/

     init_run     :      0.53s CPU      0.58s WALL (       1 calls)
     electrons    :      2.69s CPU      2.76s WALL (       1 calls)

     Called by init_run:
     wfcinit      :      0.42s CPU      0.45s WALL (       1 calls)
     potinit      :      0.00s CPU      0.01s WALL (       1 calls)
     hinit0       :      0.09s CPU      0.11s WALL (       1 calls)

     Called by electrons:
     c_bands      :      2.30s CPU      2.36s WALL (       8 calls)
     sum_band     :      0.38s CPU      0.37s WALL (       8 calls)
     v_of_rho     :      0.00s CPU      0.02s WALL (       9 calls)
     mix_rho      :      0.00s CPU      0.01s WALL (       8 calls)

     Called by c_bands:
     init_us_2    :      0.09s CPU      0.15s WALL (     493 calls)
     init_us_2:cp :      0.09s CPU      0.15s WALL (     493 calls)
     cegterg      :      2.19s CPU      2.16s WALL (     232 calls)

     Called by *egterg:
     cdiaghg      :      0.02s CPU      0.02s WALL (     850 calls)
     h_psi        :      2.36s CPU      2.33s WALL (     879 calls)
     g_psi        :      0.02s CPU      0.01s WALL (     618 calls)

     Called by h_psi:
     h_psi:calbec :      0.17s CPU      0.12s WALL (     879 calls)
     vloc_psi     :      2.09s CPU      2.12s WALL (     879 calls)
     add_vuspsi   :      0.09s CPU      0.08s WALL (     879 calls)

     General routines
     calbec       :      0.17s CPU      0.11s WALL (     879 calls)
     fft          :      0.00s CPU      0.01s WALL (      26 calls)
     ffts         :      0.00s CPU      0.00s WALL (       8 calls)
     fftw         :      2.30s CPU      2.15s WALL (    7830 calls)


     PWSCF        :      3.25s CPU      3.39s WALL


   This run was terminated on:  11:25:53  26May2024            

=------------------------------------------------------------------------------=
   JOB DONE.
=------------------------------------------------------------------------------=
