
     Program PWSCF v.7.2 starts on  8Jun2024 at 10:27:11 

     This program is part of the open-source Quantum ESPRESSO suite
     for quantum simulation of materials; please cite
         "P. Giannozzi et al., J. Phys.:Condens. Matter 21 395502 (2009);
         "P. Giannozzi et al., J. Phys.:Condens. Matter 29 465901 (2017);
         "P. Giannozzi et al., J. Chem. Phys. 152 154105 (2020);
          URL http://www.quantum-espresso.org", 
     in publications or presentations arising from this work. More details at
     http://www.quantum-espresso.org/quote

     Serial version
     9403 MiB available memory on the printing compute node when the environment starts

     Waiting for input...
     Reading input from standard input

     Current dimensions of program PWSCF are:
     Max number of different atomic species (ntypx) = 10
     Max number of k-points (npk) =  40000
     Max angular momentum in pseudopotentials (lmaxx) =  4


     G-vector sticks info
     --------------------
     sticks:   dense  smooth     PW     G-vecs:    dense   smooth      PW
     Sum        1027    1027    301                21331    21331    3479

     Using Slab Decomposition



     bravais-lattice index     =            2
     lattice parameter (alat)  =      10.2423  a.u.
     unit-cell volume          =     268.6175 (a.u.)^3
     number of atoms/cell      =            2
     number of atomic types    =            2
     number of electrons       =        26.00
     number of Kohn-Sham states=           13
     kinetic-energy cutoff     =      70.0000  Ry
     charge density cutoff     =     280.0000  Ry
     scf convergence threshold =      1.0E-08
     mixing beta               =       0.7000
     number of iterations used =            8  plain     mixing
     Exchange-correlation= PBE
                           (   1   4   3   4   0   0   0)

     celldm(1)=  10.242315  celldm(2)=   0.000000  celldm(3)=   0.000000
     celldm(4)=   0.000000  celldm(5)=   0.000000  celldm(6)=   0.000000

     crystal axes: (cart. coord. in units of alat)
               a(1) = (  -0.500000   0.000000   0.500000 )  
               a(2) = (   0.000000   0.500000   0.500000 )  
               a(3) = (  -0.500000   0.500000   0.000000 )  

     reciprocal axes: (cart. coord. in units 2 pi/alat)
               b(1) = ( -1.000000 -1.000000  1.000000 )  
               b(2) = (  1.000000  1.000000  1.000000 )  
               b(3) = ( -1.000000  1.000000 -1.000000 )  


     PseudoPot. # 1 for Zn read from file:
     /home/paolo/project_labqsm/pseudopotentials/Zn_ONCV_PBE-1.2.upf
     MD5 check sum: 732f41c0cd6489a4b50a33b4ec99a2d3
     Pseudo is Norm-conserving, Zval = 20.0
     Generated using ONCVPSP code by D. R. Hamann
     Using radial grid of  602 points,  6 beta functions with: 
                l(1) =   0
                l(2) =   0
                l(3) =   1
                l(4) =   1
                l(5) =   2
                l(6) =   2

     PseudoPot. # 2 for S  read from file:
     /home/paolo/project_labqsm/pseudopotentials/S_ONCV_PBE-1.2.upf
     MD5 check sum: f9d020296ee6110346977bfd66d424f6
     Pseudo is Norm-conserving, Zval =  6.0
     Generated using ONCVPSP code by D. R. Hamann
     Using radial grid of  602 points,  4 beta functions with: 
                l(1) =   0
                l(2) =   0
                l(3) =   1
                l(4) =   1

     atomic species   valence    mass     pseudopotential
        Zn            20.00    65.38000     Zn( 1.00)
        S              6.00    32.06000     S ( 1.00)

     24 Sym. Ops. (no inversion) found



   Cartesian axes

     site n.     atom                  positions (alat units)
         1           Zn  tau(   1) = (   0.0000000   0.0000000   0.0000000  )
         2           S   tau(   2) = (   0.2500000   0.2500000   0.2500000  )

     number of k points=    29
                       cart. coord. in units 2pi/alat
        k(    1) = (   0.0000000   0.0000000   0.0000000), wk =   0.0039062
        k(    2) = (  -0.1250000   0.1250000  -0.1250000), wk =   0.0312500
        k(    3) = (  -0.2500000   0.2500000  -0.2500000), wk =   0.0312500
        k(    4) = (  -0.3750000   0.3750000  -0.3750000), wk =   0.0312500
        k(    5) = (   0.5000000  -0.5000000   0.5000000), wk =   0.0156250
        k(    6) = (   0.0000000   0.2500000   0.0000000), wk =   0.0234375
        k(    7) = (  -0.1250000   0.3750000  -0.1250000), wk =   0.0937500
        k(    8) = (  -0.2500000   0.5000000  -0.2500000), wk =   0.0937500
        k(    9) = (   0.6250000  -0.3750000   0.6250000), wk =   0.0937500
        k(   10) = (   0.5000000  -0.2500000   0.5000000), wk =   0.0937500
        k(   11) = (   0.3750000  -0.1250000   0.3750000), wk =   0.0937500
        k(   12) = (   0.2500000   0.0000000   0.2500000), wk =   0.0468750
        k(   13) = (   0.0000000   0.5000000   0.0000000), wk =   0.0234375
        k(   14) = (  -0.1250000   0.6250000  -0.1250000), wk =   0.0937500
        k(   15) = (   0.7500000  -0.2500000   0.7500000), wk =   0.0937500
        k(   16) = (   0.6250000  -0.1250000   0.6250000), wk =   0.0937500
        k(   17) = (   0.5000000   0.0000000   0.5000000), wk =   0.0468750
        k(   18) = (   0.0000000   0.7500000   0.0000000), wk =   0.0234375
        k(   19) = (   0.8750000  -0.1250000   0.8750000), wk =   0.0937500
        k(   20) = (   0.7500000   0.0000000   0.7500000), wk =   0.0468750
        k(   21) = (   0.0000000  -1.0000000   0.0000000), wk =   0.0117188
        k(   22) = (  -0.2500000   0.5000000   0.0000000), wk =   0.0937500
        k(   23) = (   0.6250000  -0.3750000   0.8750000), wk =   0.1875000
        k(   24) = (   0.5000000  -0.2500000   0.7500000), wk =   0.0937500
        k(   25) = (   0.7500000  -0.2500000   1.0000000), wk =   0.0937500
        k(   26) = (   0.6250000  -0.1250000   0.8750000), wk =   0.1875000
        k(   27) = (   0.5000000   0.0000000   0.7500000), wk =   0.0937500
        k(   28) = (  -0.2500000  -1.0000000   0.0000000), wk =   0.0468750
        k(   29) = (  -0.5000000  -1.0000000   0.0000000), wk =   0.0234375

     Dense  grid:    21331 G-vectors     FFT dimensions: (  40,  40,  40)

     Estimated max dynamical RAM per process >      35.61 MB

     Initial potential from superposition of free atoms

     starting charge      25.9670, renormalised to      26.0000
     Starting wfcs are random

     total cpu time spent up to now is        0.6 secs

     Self-consistent Calculation

     iteration #  1     ecut=    70.00 Ry     beta= 0.70
     Davidson diagonalization with overlap
     ethr =  1.00E-02,  avg # of iterations = 13.1

     total cpu time spent up to now is        6.1 secs

     total energy              =    -420.51048817 Ry
     estimated scf accuracy    <       0.26739804 Ry

     iteration #  2     ecut=    70.00 Ry     beta= 0.70
     Davidson diagonalization with overlap
     ethr =  1.03E-03,  avg # of iterations =  3.7

     total cpu time spent up to now is        8.2 secs

     total energy              =    -420.86882025 Ry
     estimated scf accuracy    <       0.33235420 Ry

     iteration #  3     ecut=    70.00 Ry     beta= 0.70
     Davidson diagonalization with overlap
     ethr =  1.03E-03,  avg # of iterations =  2.0

     total cpu time spent up to now is        9.8 secs

     total energy              =    -420.89411465 Ry
     estimated scf accuracy    <       0.02440990 Ry

     iteration #  4     ecut=    70.00 Ry     beta= 0.70
     Davidson diagonalization with overlap
     ethr =  9.39E-05,  avg # of iterations =  2.1

     total cpu time spent up to now is       11.5 secs

     total energy              =    -420.90290440 Ry
     estimated scf accuracy    <       0.00093529 Ry

     iteration #  5     ecut=    70.00 Ry     beta= 0.70
     Davidson diagonalization with overlap
     ethr =  3.60E-06,  avg # of iterations =  2.1

     total cpu time spent up to now is       13.3 secs

     total energy              =    -420.90313469 Ry
     estimated scf accuracy    <       0.00005856 Ry

     iteration #  6     ecut=    70.00 Ry     beta= 0.70
     Davidson diagonalization with overlap
     ethr =  2.25E-07,  avg # of iterations =  2.6

     total cpu time spent up to now is       15.1 secs

     total energy              =    -420.90312809 Ry
     estimated scf accuracy    <       0.00003761 Ry

     iteration #  7     ecut=    70.00 Ry     beta= 0.70
     Davidson diagonalization with overlap
     ethr =  1.45E-07,  avg # of iterations =  3.0

     total cpu time spent up to now is       17.2 secs

     total energy              =    -420.90314057 Ry
     estimated scf accuracy    <       0.00003838 Ry

     iteration #  8     ecut=    70.00 Ry     beta= 0.70
     Davidson diagonalization with overlap
     ethr =  1.45E-07,  avg # of iterations =  2.0

     total cpu time spent up to now is       18.9 secs

     total energy              =    -420.90314564 Ry
     estimated scf accuracy    <       0.00000127 Ry

     iteration #  9     ecut=    70.00 Ry     beta= 0.70
     Davidson diagonalization with overlap
     ethr =  4.89E-09,  avg # of iterations =  3.0

     total cpu time spent up to now is       20.9 secs

     total energy              =    -420.90314634 Ry
     estimated scf accuracy    <       0.00000025 Ry

     iteration # 10     ecut=    70.00 Ry     beta= 0.70
     Davidson diagonalization with overlap
     ethr =  9.80E-10,  avg # of iterations =  2.0

     total cpu time spent up to now is       22.5 secs

     total energy              =    -420.90314636 Ry
     estimated scf accuracy    <       0.00000002 Ry

     iteration # 11     ecut=    70.00 Ry     beta= 0.70
     Davidson diagonalization with overlap
     ethr =  9.33E-11,  avg # of iterations =  2.0

     total cpu time spent up to now is       24.1 secs

     End of self-consistent calculation

          k = 0.0000 0.0000 0.0000 (  2685 PWs)   bands (ev):

  -117.4843 -71.6552 -71.6552 -71.6552  -5.6953   1.0822   1.0822   1.0822
     1.5680   1.5680   7.3809   7.3809   7.3809

          k =-0.1250 0.1250-0.1250 (  2691 PWs)   bands (ev):

  -117.4843 -71.6552 -71.6552 -71.6552  -5.5803   1.0842   1.1028   1.1028
     1.5664   1.5664   6.2736   7.2364   7.2364

          k =-0.2500 0.2500-0.2500 (  2656 PWs)   bands (ev):

  -117.4843 -71.6553 -71.6552 -71.6552  -5.2804   1.1332   1.1480   1.1480
     1.5696   1.5696   4.5727   6.9210   6.9210

          k =-0.3750 0.3750-0.3750 (  2659 PWs)   bands (ev):

  -117.4843 -71.6553 -71.6552 -71.6552  -4.9403   1.1837   1.1837   1.3507
     1.5861   1.5861   3.0655   6.6391   6.6391

          k = 0.5000-0.5000 0.5000 (  2638 PWs)   bands (ev):

  -117.4843 -71.6554 -71.6552 -71.6552  -4.7843   1.1949   1.1949   1.5978
     1.5978   1.7691   2.1537   6.5296   6.5296

          k = 0.0000 0.2500 0.0000 (  2689 PWs)   bands (ev):

  -117.4843 -71.6552 -71.6552 -71.6552  -5.5420   1.0637   1.1206   1.1206
     1.5521   1.5787   6.3156   6.9804   6.9804

          k =-0.1250 0.3750-0.1250 (  2658 PWs)   bands (ev):

  -117.4843 -71.6553 -71.6552 -71.6552  -5.3029   1.0742   1.1685   1.1697
     1.5448   1.5886   5.0419   6.6082   6.6806

          k =-0.2500 0.5000-0.2500 (  2673 PWs)   bands (ev):

  -117.4843 -71.6553 -71.6552 -71.6552  -4.9712   1.1536   1.2110   1.2721
     1.5705   1.6002   3.5723   6.2663   6.3412

          k = 0.6250-0.3750 0.6250 (  2652 PWs)   bands (ev):

  -117.4843 -71.6554 -71.6552 -71.6552  -4.7449   1.1930   1.2259   1.5182
     1.6006   1.7297   2.4480   5.9173   6.3040

          k = 0.5000-0.2500 0.5000 (  2654 PWs)   bands (ev):

  -117.4843 -71.6553 -71.6552 -71.6552  -4.7972   1.1976   1.2142   1.4735
     1.5770   1.6391   2.7586   5.7961   6.5111

          k = 0.3750-0.1250 0.3750 (  2657 PWs)   bands (ev):

  -117.4843 -71.6553 -71.6552 -71.6552  -5.0848   1.1706   1.1769   1.2038
     1.5533   1.5978   4.0368   5.9840   6.8670

          k = 0.2500 0.0000 0.2500 (  2643 PWs)   bands (ev):

  -117.4843 -71.6552 -71.6552 -71.6552  -5.4030   1.0919   1.1282   1.1454
     1.5530   1.5795   5.4060   6.5428   7.1820

          k = 0.0000 0.5000 0.0000 (  2650 PWs)   bands (ev):

  -117.4843 -71.6553 -71.6552 -71.6552  -5.1415   1.0378   1.2260   1.2260
     1.5303   1.6044   4.8260   6.1671   6.1671

          k =-0.1250 0.6250-0.1250 (  2656 PWs)   bands (ev):

  -117.4843 -71.6553 -71.6553 -71.6552  -4.8703   1.0796   1.2823   1.2958
     1.5671   1.6159   3.8965   5.6469   5.8535

          k = 0.7500-0.2500 0.7500 (  2654 PWs)   bands (ev):

  -117.4843 -71.6553 -71.6553 -71.6552  -4.6427   1.1662   1.3041   1.4165
     1.6104   1.7328   2.9493   5.0201   5.8132

          k = 0.6250-0.1250 0.6250 (  2654 PWs)   bands (ev):

  -117.4843 -71.6553 -71.6553 -71.6552  -4.6166   1.1978   1.2867   1.5188
     1.5802   1.7919   2.7427   4.6584   6.0645

          k = 0.5000 0.0000 0.5000 (  2650 PWs)   bands (ev):

  -117.4843 -71.6553 -71.6553 -71.6552  -4.8100   1.2039   1.2360   1.3630
     1.5538   1.6293   3.4619   4.9105   6.4929

          k = 0.0000 0.7500 0.0000 (  2658 PWs)   bands (ev):

  -117.4843 -71.6553 -71.6553 -71.6553  -4.6868   1.0482   1.3553   1.3553
     1.6059   1.6302   3.5308   5.4691   5.4691

          k = 0.8750-0.1250 0.8750 (  2658 PWs)   bands (ev):

  -117.4843 -71.6554 -71.6553 -71.6553  -4.5290   1.0986   1.3855   1.4050
     1.6285   1.7603   3.0208   4.9272   5.3712

          k = 0.7500 0.0000 0.7500 (  2624 PWs)   bands (ev):

  -117.4843 -71.6553 -71.6553 -71.6553  -4.5011   1.1663   1.3586   1.4685
     1.6022   1.9081   2.8104   4.3190   5.6052

          k = 0.0000-1.0000 0.0000 (  2698 PWs)   bands (ev):

  -117.4843 -71.6554 -71.6553 -71.6553  -4.4780   1.0620   1.4183   1.4183
     1.6409   1.7824   2.8624   5.1970   5.1970

          k =-0.2500 0.5000 0.0000 (  2653 PWs)   bands (ev):

  -117.4843 -71.6553 -71.6552 -71.6552  -5.0454   1.1084   1.2124   1.2396
     1.5470   1.6051   4.2653   5.7068   6.4958

          k = 0.6250-0.3750 0.8750 (  2658 PWs)   bands (ev):

  -117.4843 -71.6553 -71.6553 -71.6552  -4.7614   1.1926   1.2428   1.3856
     1.5858   1.6414   3.2312   5.1888   6.1337

          k = 0.5000-0.2500 0.7500 (  2660 PWs)   bands (ev):

  -117.4843 -71.6553 -71.6553 -71.6552  -4.6343   1.2078   1.2635   1.5178
     1.5805   1.8342   2.5559   5.0705   5.9467

          k = 0.7500-0.2500 1.0000 (  2664 PWs)   bands (ev):

  -117.4843 -71.6553 -71.6553 -71.6553  -4.6511   1.1312   1.3124   1.3861
     1.6134   1.6706   3.3354   5.0596   5.5023

          k = 0.6250-0.1250 0.8750 (  2649 PWs)   bands (ev):

  -117.4843 -71.6553 -71.6553 -71.6553  -4.5225   1.1930   1.3322   1.4752
     1.5835   1.8761   2.8569   4.5444   5.3473

          k = 0.5000 0.0000 0.7500 (  2648 PWs)   bands (ev):

  -117.4843 -71.6553 -71.6553 -71.6553  -4.5713   1.2146   1.2955   1.5078
     1.5637   1.8042   2.9480   4.4374   5.6611

          k =-0.2500-1.0000 0.0000 (  2648 PWs)   bands (ev):

  -117.4843 -71.6553 -71.6553 -71.6553  -4.4751   1.1364   1.3842   1.4373
     1.6138   1.8720   2.8534   4.9291   4.9417

          k =-0.5000-1.0000 0.0000 (  2656 PWs)   bands (ev):

  -117.4843 -71.6553 -71.6553 -71.6553  -4.4722   1.2138   1.3585   1.5122
     1.5331   1.9594   2.8421   4.6821   4.7052

     highest occupied level (ev):     7.3809

!    total energy              =    -420.90314636 Ry
     estimated scf accuracy    <          5.7E-09 Ry

     The total energy is the sum of the following terms:
     one-electron contribution =    -339.00807625 Ry
     hartree contribution      =     173.06581633 Ry
     xc contribution           =     -40.99904993 Ry
     ewald contribution        =    -213.96183651 Ry

     convergence has been achieved in  11 iterations

     Writing all to output data dir ./SCRATCH/zns.save/

     init_run     :      0.59s CPU      0.63s WALL (       1 calls)
     electrons    :     23.19s CPU     23.48s WALL (       1 calls)

     Called by init_run:
     wfcinit      :      0.53s CPU      0.54s WALL (       1 calls)
     potinit      :      0.02s CPU      0.04s WALL (       1 calls)
     hinit0       :      0.03s CPU      0.03s WALL (       1 calls)

     Called by electrons:
     c_bands      :     20.62s CPU     20.84s WALL (      11 calls)
     sum_band     :      2.36s CPU      2.35s WALL (      11 calls)
     v_of_rho     :      0.20s CPU      0.28s WALL (      12 calls)
     mix_rho      :      0.02s CPU      0.03s WALL (      11 calls)

     Called by c_bands:
     init_us_2    :      0.41s CPU      0.37s WALL (     667 calls)
     init_us_2:cp :      0.41s CPU      0.36s WALL (     667 calls)
     cegterg      :     20.08s CPU     20.21s WALL (     319 calls)

     Called by *egterg:
     cdiaghg      :      0.16s CPU      0.18s WALL (    1409 calls)
     h_psi        :     16.62s CPU     17.02s WALL (    1438 calls)
     g_psi        :      0.06s CPU      0.08s WALL (    1090 calls)

     Called by h_psi:
     h_psi:calbec :      1.11s CPU      1.07s WALL (    1438 calls)
     vloc_psi     :     14.72s CPU     15.10s WALL (    1438 calls)
     add_vuspsi   :      0.73s CPU      0.77s WALL (    1438 calls)

     General routines
     calbec       :      1.11s CPU      1.07s WALL (    1438 calls)
     fft          :      0.08s CPU      0.09s WALL (     119 calls)
     ffts         :      0.03s CPU      0.01s WALL (      11 calls)
     fftw         :     15.25s CPU     15.68s WALL (   33495 calls)


     PWSCF        :     23.80s CPU     24.15s WALL


   This run was terminated on:  10:27:36   8Jun2024            

=------------------------------------------------------------------------------=
   JOB DONE.
=------------------------------------------------------------------------------=
