
     Program PWSCF v.7.2 starts on 26May2024 at 11:32: 1 

     This program is part of the open-source Quantum ESPRESSO suite
     for quantum simulation of materials; please cite
         "P. Giannozzi et al., J. Phys.:Condens. Matter 21 395502 (2009);
         "P. Giannozzi et al., J. Phys.:Condens. Matter 29 465901 (2017);
         "P. Giannozzi et al., J. Chem. Phys. 152 154105 (2020);
          URL http://www.quantum-espresso.org", 
     in publications or presentations arising from this work. More details at
     http://www.quantum-espresso.org/quote

     Serial version
     9746 MiB available memory on the printing compute node when the environment starts

     Waiting for input...
     Reading input from standard input

     Current dimensions of program PWSCF are:
     Max number of different atomic species (ntypx) = 10
     Max number of k-points (npk) =  40000
     Max angular momentum in pseudopotentials (lmaxx) =  4


     G-vector sticks info
     --------------------
     sticks:   dense  smooth     PW     G-vecs:    dense   smooth      PW
     Sum        1045    1045    313                22419    22419    3695

     Using Slab Decomposition



     bravais-lattice index     =            2
     lattice parameter (alat)  =      10.4472  a.u.
     unit-cell volume          =     285.0591 (a.u.)^3
     number of atoms/cell      =            2
     number of atomic types    =            2
     number of electrons       =         8.00
     number of Kohn-Sham states=            4
     kinetic-energy cutoff     =      70.0000  Ry
     charge density cutoff     =     280.0000  Ry
     scf convergence threshold =      1.0E-08
     mixing beta               =       0.7000
     number of iterations used =            8  plain     mixing
     Exchange-correlation= SLA-PZ-NOGX-NOGC
                           (   1   1   0   0   0   0   0)

     celldm(1)=  10.447161  celldm(2)=   0.000000  celldm(3)=   0.000000
     celldm(4)=   0.000000  celldm(5)=   0.000000  celldm(6)=   0.000000

     crystal axes: (cart. coord. in units of alat)
               a(1) = (  -0.500000   0.000000   0.500000 )  
               a(2) = (   0.000000   0.500000   0.500000 )  
               a(3) = (  -0.500000   0.500000   0.000000 )  

     reciprocal axes: (cart. coord. in units 2 pi/alat)
               b(1) = ( -1.000000 -1.000000  1.000000 )  
               b(2) = (  1.000000  1.000000  1.000000 )  
               b(3) = ( -1.000000  1.000000 -1.000000 )  


     PseudoPot. # 1 for Zn read from file:
     /home/paolo/project_labqsm/pseudopotentials/Zn.pz-hgh.UPF
     MD5 check sum: c1979979258da2eeca1fc2dcb474678d
     Pseudo is Norm-conserving, Zval =  2.0
     Generated in analytical, separable form
     Using radial grid of 1201 points,  6 beta functions with: 
                l(1) =   0
                l(2) =   0
                l(3) =   0
                l(4) =   1
                l(5) =   1
                l(6) =   2

     PseudoPot. # 2 for S  read from file:
     /home/paolo/project_labqsm/pseudopotentials/S.pz-hgh.UPF
     MD5 check sum: a0679cb0a74c01c481c24d5fd31ffa9b
     Pseudo is Norm-conserving, Zval =  6.0
     Generated in analytical, separable form
     Using radial grid of 1151 points,  3 beta functions with: 
                l(1) =   0
                l(2) =   0
                l(3) =   1

     atomic species   valence    mass     pseudopotential
        Zn             2.00    65.38000     Zn( 1.00)
        S              6.00    32.06000     S ( 1.00)

     24 Sym. Ops. (no inversion) found



   Cartesian axes

     site n.     atom                  positions (alat units)
         1           Zn  tau(   1) = (   0.0000000   0.0000000   0.0000000  )
         2           S   tau(   2) = (   0.2500000   0.2500000   0.2500000  )

     number of k points=    29
                       cart. coord. in units 2pi/alat
        k(    1) = (   0.0000000   0.0000000   0.0000000), wk =   0.0039062
        k(    2) = (  -0.1250000   0.1250000  -0.1250000), wk =   0.0312500
        k(    3) = (  -0.2500000   0.2500000  -0.2500000), wk =   0.0312500
        k(    4) = (  -0.3750000   0.3750000  -0.3750000), wk =   0.0312500
        k(    5) = (   0.5000000  -0.5000000   0.5000000), wk =   0.0156250
        k(    6) = (   0.0000000   0.2500000   0.0000000), wk =   0.0234375
        k(    7) = (  -0.1250000   0.3750000  -0.1250000), wk =   0.0937500
        k(    8) = (  -0.2500000   0.5000000  -0.2500000), wk =   0.0937500
        k(    9) = (   0.6250000  -0.3750000   0.6250000), wk =   0.0937500
        k(   10) = (   0.5000000  -0.2500000   0.5000000), wk =   0.0937500
        k(   11) = (   0.3750000  -0.1250000   0.3750000), wk =   0.0937500
        k(   12) = (   0.2500000   0.0000000   0.2500000), wk =   0.0468750
        k(   13) = (   0.0000000   0.5000000   0.0000000), wk =   0.0234375
        k(   14) = (  -0.1250000   0.6250000  -0.1250000), wk =   0.0937500
        k(   15) = (   0.7500000  -0.2500000   0.7500000), wk =   0.0937500
        k(   16) = (   0.6250000  -0.1250000   0.6250000), wk =   0.0937500
        k(   17) = (   0.5000000   0.0000000   0.5000000), wk =   0.0468750
        k(   18) = (   0.0000000   0.7500000   0.0000000), wk =   0.0234375
        k(   19) = (   0.8750000  -0.1250000   0.8750000), wk =   0.0937500
        k(   20) = (   0.7500000   0.0000000   0.7500000), wk =   0.0468750
        k(   21) = (   0.0000000  -1.0000000   0.0000000), wk =   0.0117188
        k(   22) = (  -0.2500000   0.5000000   0.0000000), wk =   0.0937500
        k(   23) = (   0.6250000  -0.3750000   0.8750000), wk =   0.1875000
        k(   24) = (   0.5000000  -0.2500000   0.7500000), wk =   0.0937500
        k(   25) = (   0.7500000  -0.2500000   1.0000000), wk =   0.0937500
        k(   26) = (   0.6250000  -0.1250000   0.8750000), wk =   0.1875000
        k(   27) = (   0.5000000   0.0000000   0.7500000), wk =   0.0937500
        k(   28) = (  -0.2500000  -1.0000000   0.0000000), wk =   0.0468750
        k(   29) = (  -0.5000000  -1.0000000   0.0000000), wk =   0.0234375

     Dense  grid:    22419 G-vectors     FFT dimensions: (  40,  40,  40)

     Estimated max dynamical RAM per process >      24.62 MB

     Initial potential from superposition of free atoms

     starting charge       6.0000, renormalised to       8.0000
     Starting wfcs are   18 randomized atomic wfcs

     total cpu time spent up to now is        0.9 secs

     Self-consistent Calculation

     iteration #  1     ecut=    70.00 Ry     beta= 0.70
     Davidson diagonalization with overlap
     ethr =  1.00E-02,  avg # of iterations =  2.0

     total cpu time spent up to now is        1.4 secs

     total energy              =     -22.61951706 Ry
     estimated scf accuracy    <       0.71597421 Ry

     iteration #  2     ecut=    70.00 Ry     beta= 0.70
     Davidson diagonalization with overlap
     ethr =  8.95E-03,  avg # of iterations =  2.0

     total cpu time spent up to now is        2.0 secs

     total energy              =     -22.85115795 Ry
     estimated scf accuracy    <       0.16172134 Ry

     iteration #  3     ecut=    70.00 Ry     beta= 0.70
     Davidson diagonalization with overlap
     ethr =  2.02E-03,  avg # of iterations =  2.0

     negative rho (up, down):  6.612E-08 0.000E+00

     total cpu time spent up to now is        2.5 secs

     total energy              =     -22.86868780 Ry
     estimated scf accuracy    <       0.00493649 Ry

     iteration #  4     ecut=    70.00 Ry     beta= 0.70
     Davidson diagonalization with overlap
     ethr =  6.17E-05,  avg # of iterations =  2.3

     total cpu time spent up to now is        3.1 secs

     total energy              =     -22.87071318 Ry
     estimated scf accuracy    <       0.00382546 Ry

     iteration #  5     ecut=    70.00 Ry     beta= 0.70
     Davidson diagonalization with overlap
     ethr =  4.78E-05,  avg # of iterations =  1.2

     total cpu time spent up to now is        3.5 secs

     total energy              =     -22.87083507 Ry
     estimated scf accuracy    <       0.00039148 Ry

     iteration #  6     ecut=    70.00 Ry     beta= 0.70
     Davidson diagonalization with overlap
     ethr =  4.89E-06,  avg # of iterations =  2.5

     total cpu time spent up to now is        4.1 secs

     total energy              =     -22.87097693 Ry
     estimated scf accuracy    <       0.00000125 Ry

     iteration #  7     ecut=    70.00 Ry     beta= 0.70
     Davidson diagonalization with overlap
     ethr =  1.56E-08,  avg # of iterations =  5.6

     total cpu time spent up to now is        4.9 secs

     total energy              =     -22.87098024 Ry
     estimated scf accuracy    <       0.00000248 Ry

     iteration #  8     ecut=    70.00 Ry     beta= 0.70
     Davidson diagonalization with overlap
     ethr =  1.56E-08,  avg # of iterations =  2.9

     total cpu time spent up to now is        5.5 secs

     total energy              =     -22.87098095 Ry
     estimated scf accuracy    <       0.00000060 Ry

     iteration #  9     ecut=    70.00 Ry     beta= 0.70
     Davidson diagonalization with overlap
     ethr =  7.54E-09,  avg # of iterations =  2.0

     total cpu time spent up to now is        6.0 secs

     End of self-consistent calculation

          k = 0.0000 0.0000 0.0000 (  2741 PWs)   bands (ev):

   -10.2619   1.8610   1.8610   1.8610

          k =-0.1250 0.1250-0.1250 (  2794 PWs)   bands (ev):

   -10.1497   0.7808   1.7523   1.7523

          k =-0.2500 0.2500-0.2500 (  2809 PWs)   bands (ev):

    -9.8470  -0.8467   1.5159   1.5159

          k =-0.3750 0.3750-0.3750 (  2821 PWs)   bands (ev):

    -9.4829  -2.1316   1.3081   1.3081

          k = 0.5000-0.5000 0.5000 (  2824 PWs)   bands (ev):

    -9.3061  -2.6335   1.2287   1.2287

          k = 0.0000 0.2500 0.0000 (  2794 PWs)   bands (ev):

   -10.1123   0.7738   1.5414   1.5414

          k =-0.1250 0.3750-0.1250 (  2810 PWs)   bands (ev):

    -9.8722  -0.4448   1.2506   1.2917

          k =-0.2500 0.5000-0.2500 (  2821 PWs)   bands (ev):

    -9.5207  -1.7315   0.9392   1.0549

          k = 0.6250-0.3750 0.6250 (  2824 PWs)   bands (ev):

    -9.2649  -2.4644   0.6396   1.0411

          k = 0.5000-0.2500 0.5000 (  2822 PWs)   bands (ev):

    -9.3245  -2.3017   0.5358   1.2097

          k = 0.3750-0.1250 0.3750 (  2824 PWs)   bands (ev):

    -9.6426  -1.3407   0.6997   1.4863

          k = 0.2500 0.0000 0.2500 (  2818 PWs)   bands (ev):

    -9.9730  -0.0877   1.1778   1.7237

          k = 0.0000 0.5000 0.0000 (  2826 PWs)   bands (ev):

    -9.7088  -0.7353   0.8955   0.8955

          k =-0.1250 0.6250-0.1250 (  2812 PWs)   bands (ev):

    -9.4193  -1.5399   0.4377   0.6583

          k = 0.7500-0.2500 0.7500 (  2816 PWs)   bands (ev):

    -9.1578  -2.1402  -0.1685   0.6409

          k = 0.6250-0.1250 0.6250 (  2816 PWs)   bands (ev):

    -9.1219  -2.1845  -0.5189   0.8475

          k = 0.5000 0.0000 0.5000 (  2840 PWs)   bands (ev):

    -9.3427  -1.7860  -0.2611   1.1910

          k = 0.0000 0.7500 0.0000 (  2814 PWs)   bands (ev):

    -9.2221  -1.9074   0.3619   0.3619

          k = 0.8750-0.1250 0.8750 (  2826 PWs)   bands (ev):

    -9.0382  -2.2107  -0.1319   0.2948

          k = 0.7500 0.0000 0.7500 (  2838 PWs)   bands (ev):

    -8.9950  -2.1506  -0.7638   0.4807

          k = 0.0000-1.0000 0.0000 (  2794 PWs)   bands (ev):

    -8.9843  -2.3751   0.1634   0.1634

          k =-0.2500 0.5000 0.0000 (  2817 PWs)   bands (ev):

    -9.6039  -1.1819   0.4777   1.1662

          k = 0.6250-0.3750 0.8750 (  2818 PWs)   bands (ev):

    -9.2899  -1.9632  -0.0104   0.8811

          k = 0.5000-0.2500 0.7500 (  2826 PWs)   bands (ev):

    -9.1416  -2.3127  -0.1457   0.7371

          k = 0.7500-0.2500 1.0000 (  2804 PWs)   bands (ev):

    -9.1738  -1.9550  -0.0528   0.3569

          k = 0.6250-0.1250 0.8750 (  2819 PWs)   bands (ev):

    -9.0183  -2.1163  -0.5802   0.2308

          k = 0.5000 0.0000 0.7500 (  2820 PWs)   bands (ev):

    -9.0720  -2.0422  -0.6966   0.4869

          k =-0.2500-1.0000 0.0000 (  2826 PWs)   bands (ev):

    -8.9713  -2.2395  -0.1928  -0.0528

          k =-0.5000-1.0000 0.0000 (  2832 PWs)   bands (ev):

    -8.9582  -2.0593  -0.5655  -0.2435

     highest occupied level (ev):     1.8610

!    total energy              =     -22.87098103 Ry
     estimated scf accuracy    <          6.2E-09 Ry

     The total energy is the sum of the following terms:
     one-electron contribution =      -1.72185638 Ry
     hartree contribution      =       3.64337794 Ry
     xc contribution           =      -5.39575517 Ry
     ewald contribution        =     -19.39674743 Ry

     convergence has been achieved in   9 iterations

     Writing all to output data dir ./SCRATCH/zns.save/

     init_run     :      0.89s CPU      0.91s WALL (       1 calls)
     electrons    :      4.94s CPU      5.08s WALL (       1 calls)

     Called by init_run:
     wfcinit      :      0.73s CPU      0.75s WALL (       1 calls)
     potinit      :      0.02s CPU      0.01s WALL (       1 calls)
     hinit0       :      0.12s CPU      0.13s WALL (       1 calls)

     Called by electrons:
     c_bands      :      4.22s CPU      4.32s WALL (       9 calls)
     sum_band     :      0.69s CPU      0.70s WALL (       9 calls)
     v_of_rho     :      0.00s CPU      0.03s WALL (      10 calls)
     mix_rho      :      0.02s CPU      0.03s WALL (       9 calls)

     Called by c_bands:
     init_us_2    :      0.23s CPU      0.29s WALL (     551 calls)
     init_us_2:cp :      0.23s CPU      0.29s WALL (     551 calls)
     cegterg      :      4.00s CPU      3.94s WALL (     261 calls)

     Called by *egterg:
     cdiaghg      :      0.02s CPU      0.02s WALL (     915 calls)
     h_psi        :      4.34s CPU      4.22s WALL (     944 calls)
     g_psi        :      0.02s CPU      0.02s WALL (     654 calls)

     Called by h_psi:
     h_psi:calbec :      0.20s CPU      0.22s WALL (     944 calls)
     vloc_psi     :      3.97s CPU      3.83s WALL (     944 calls)
     add_vuspsi   :      0.12s CPU      0.15s WALL (     944 calls)

     General routines
     calbec       :      0.19s CPU      0.22s WALL (     944 calls)
     fft          :      0.02s CPU      0.02s WALL (      29 calls)
     ffts         :      0.00s CPU      0.01s WALL (       9 calls)
     fftw         :      4.06s CPU      3.96s WALL (    8454 calls)


     PWSCF        :      5.86s CPU      6.04s WALL


   This run was terminated on:  11:32: 7  26May2024            

=------------------------------------------------------------------------------=
   JOB DONE.
=------------------------------------------------------------------------------=
