
     Program PWSCF v.7.2 starts on  8Jun2024 at 10:26:34 

     This program is part of the open-source Quantum ESPRESSO suite
     for quantum simulation of materials; please cite
         "P. Giannozzi et al., J. Phys.:Condens. Matter 21 395502 (2009);
         "P. Giannozzi et al., J. Phys.:Condens. Matter 29 465901 (2017);
         "P. Giannozzi et al., J. Chem. Phys. 152 154105 (2020);
          URL http://www.quantum-espresso.org", 
     in publications or presentations arising from this work. More details at
     http://www.quantum-espresso.org/quote

     Serial version
     9327 MiB available memory on the printing compute node when the environment starts

     Waiting for input...
     Reading input from standard input

     Current dimensions of program PWSCF are:
     Max number of different atomic species (ntypx) = 10
     Max number of k-points (npk) =  40000
     Max angular momentum in pseudopotentials (lmaxx) =  4


     G-vector sticks info
     --------------------
     sticks:   dense  smooth     PW     G-vecs:    dense   smooth      PW
     Sum         583     583    187                 9257     9257    1639

     Using Slab Decomposition



     bravais-lattice index     =            2
     lattice parameter (alat)  =      10.2423  a.u.
     unit-cell volume          =     268.6175 (a.u.)^3
     number of atoms/cell      =            2
     number of atomic types    =            2
     number of electrons       =        26.00
     number of Kohn-Sham states=           13
     kinetic-energy cutoff     =      40.0000  Ry
     charge density cutoff     =     160.0000  Ry
     scf convergence threshold =      1.0E-08
     mixing beta               =       0.7000
     number of iterations used =            8  plain     mixing
     Exchange-correlation= PBE
                           (   1   4   3   4   0   0   0)

     celldm(1)=  10.242315  celldm(2)=   0.000000  celldm(3)=   0.000000
     celldm(4)=   0.000000  celldm(5)=   0.000000  celldm(6)=   0.000000

     crystal axes: (cart. coord. in units of alat)
               a(1) = (  -0.500000   0.000000   0.500000 )  
               a(2) = (   0.000000   0.500000   0.500000 )  
               a(3) = (  -0.500000   0.500000   0.000000 )  

     reciprocal axes: (cart. coord. in units 2 pi/alat)
               b(1) = ( -1.000000 -1.000000  1.000000 )  
               b(2) = (  1.000000  1.000000  1.000000 )  
               b(3) = ( -1.000000  1.000000 -1.000000 )  


     PseudoPot. # 1 for Zn read from file:
     /home/paolo/project_labqsm/pseudopotentials/Zn_ONCV_PBE-1.2.upf
     MD5 check sum: 732f41c0cd6489a4b50a33b4ec99a2d3
     Pseudo is Norm-conserving, Zval = 20.0
     Generated using ONCVPSP code by D. R. Hamann
     Using radial grid of  602 points,  6 beta functions with: 
                l(1) =   0
                l(2) =   0
                l(3) =   1
                l(4) =   1
                l(5) =   2
                l(6) =   2

     PseudoPot. # 2 for S  read from file:
     /home/paolo/project_labqsm/pseudopotentials/S_ONCV_PBE-1.2.upf
     MD5 check sum: f9d020296ee6110346977bfd66d424f6
     Pseudo is Norm-conserving, Zval =  6.0
     Generated using ONCVPSP code by D. R. Hamann
     Using radial grid of  602 points,  4 beta functions with: 
                l(1) =   0
                l(2) =   0
                l(3) =   1
                l(4) =   1

     atomic species   valence    mass     pseudopotential
        Zn            20.00    65.38000     Zn( 1.00)
        S              6.00    32.06000     S ( 1.00)

     24 Sym. Ops. (no inversion) found



   Cartesian axes

     site n.     atom                  positions (alat units)
         1           Zn  tau(   1) = (   0.0000000   0.0000000   0.0000000  )
         2           S   tau(   2) = (   0.2500000   0.2500000   0.2500000  )

     number of k points=    29
                       cart. coord. in units 2pi/alat
        k(    1) = (   0.0000000   0.0000000   0.0000000), wk =   0.0039062
        k(    2) = (  -0.1250000   0.1250000  -0.1250000), wk =   0.0312500
        k(    3) = (  -0.2500000   0.2500000  -0.2500000), wk =   0.0312500
        k(    4) = (  -0.3750000   0.3750000  -0.3750000), wk =   0.0312500
        k(    5) = (   0.5000000  -0.5000000   0.5000000), wk =   0.0156250
        k(    6) = (   0.0000000   0.2500000   0.0000000), wk =   0.0234375
        k(    7) = (  -0.1250000   0.3750000  -0.1250000), wk =   0.0937500
        k(    8) = (  -0.2500000   0.5000000  -0.2500000), wk =   0.0937500
        k(    9) = (   0.6250000  -0.3750000   0.6250000), wk =   0.0937500
        k(   10) = (   0.5000000  -0.2500000   0.5000000), wk =   0.0937500
        k(   11) = (   0.3750000  -0.1250000   0.3750000), wk =   0.0937500
        k(   12) = (   0.2500000   0.0000000   0.2500000), wk =   0.0468750
        k(   13) = (   0.0000000   0.5000000   0.0000000), wk =   0.0234375
        k(   14) = (  -0.1250000   0.6250000  -0.1250000), wk =   0.0937500
        k(   15) = (   0.7500000  -0.2500000   0.7500000), wk =   0.0937500
        k(   16) = (   0.6250000  -0.1250000   0.6250000), wk =   0.0937500
        k(   17) = (   0.5000000   0.0000000   0.5000000), wk =   0.0468750
        k(   18) = (   0.0000000   0.7500000   0.0000000), wk =   0.0234375
        k(   19) = (   0.8750000  -0.1250000   0.8750000), wk =   0.0937500
        k(   20) = (   0.7500000   0.0000000   0.7500000), wk =   0.0468750
        k(   21) = (   0.0000000  -1.0000000   0.0000000), wk =   0.0117188
        k(   22) = (  -0.2500000   0.5000000   0.0000000), wk =   0.0937500
        k(   23) = (   0.6250000  -0.3750000   0.8750000), wk =   0.1875000
        k(   24) = (   0.5000000  -0.2500000   0.7500000), wk =   0.0937500
        k(   25) = (   0.7500000  -0.2500000   1.0000000), wk =   0.0937500
        k(   26) = (   0.6250000  -0.1250000   0.8750000), wk =   0.1875000
        k(   27) = (   0.5000000   0.0000000   0.7500000), wk =   0.0937500
        k(   28) = (  -0.2500000  -1.0000000   0.0000000), wk =   0.0468750
        k(   29) = (  -0.5000000  -1.0000000   0.0000000), wk =   0.0234375

     Dense  grid:     9257 G-vectors     FFT dimensions: (  30,  30,  30)

     Estimated max dynamical RAM per process >      16.25 MB

     Initial potential from superposition of free atoms

     starting charge      25.9670, renormalised to      26.0000
     Starting wfcs are random

     total cpu time spent up to now is        0.3 secs

     Self-consistent Calculation

     iteration #  1     ecut=    40.00 Ry     beta= 0.70
     Davidson diagonalization with overlap
     ethr =  1.00E-02,  avg # of iterations = 12.7

     total cpu time spent up to now is        2.5 secs

     total energy              =    -419.01349865 Ry
     estimated scf accuracy    <       0.85327711 Ry

     iteration #  2     ecut=    40.00 Ry     beta= 0.70
     Davidson diagonalization with overlap
     ethr =  3.28E-03,  avg # of iterations =  2.9

     total cpu time spent up to now is        3.3 secs

     total energy              =    -419.64888144 Ry
     estimated scf accuracy    <       0.66738038 Ry

     iteration #  3     ecut=    40.00 Ry     beta= 0.70
     Davidson diagonalization with overlap
     ethr =  2.57E-03,  avg # of iterations =  2.0

     total cpu time spent up to now is        4.0 secs

     total energy              =    -419.72255968 Ry
     estimated scf accuracy    <       0.03698144 Ry

     iteration #  4     ecut=    40.00 Ry     beta= 0.70
     Davidson diagonalization with overlap
     ethr =  1.42E-04,  avg # of iterations =  2.1

     total cpu time spent up to now is        4.7 secs

     total energy              =    -419.72912848 Ry
     estimated scf accuracy    <       0.00152670 Ry

     iteration #  5     ecut=    40.00 Ry     beta= 0.70
     Davidson diagonalization with overlap
     ethr =  5.87E-06,  avg # of iterations =  3.5

     total cpu time spent up to now is        5.5 secs

     total energy              =    -419.72971435 Ry
     estimated scf accuracy    <       0.00069512 Ry

     iteration #  6     ecut=    40.00 Ry     beta= 0.70
     Davidson diagonalization with overlap
     ethr =  2.67E-06,  avg # of iterations =  2.0

     total cpu time spent up to now is        6.1 secs

     total energy              =    -419.72990952 Ry
     estimated scf accuracy    <       0.00001956 Ry

     iteration #  7     ecut=    40.00 Ry     beta= 0.70
     Davidson diagonalization with overlap
     ethr =  7.52E-08,  avg # of iterations =  3.1

     total cpu time spent up to now is        6.8 secs

     total energy              =    -419.72989753 Ry
     estimated scf accuracy    <       0.00003269 Ry

     iteration #  8     ecut=    40.00 Ry     beta= 0.70
     Davidson diagonalization with overlap
     ethr =  7.52E-08,  avg # of iterations =  2.0

     total cpu time spent up to now is        7.5 secs

     total energy              =    -419.72990390 Ry
     estimated scf accuracy    <       0.00000029 Ry

     iteration #  9     ecut=    40.00 Ry     beta= 0.70
     Davidson diagonalization with overlap
     ethr =  1.10E-09,  avg # of iterations =  3.2

     total cpu time spent up to now is        8.3 secs

     End of self-consistent calculation

          k = 0.0000 0.0000 0.0000 (  1139 PWs)   bands (ev):

  -122.4871 -75.0767 -75.0767 -75.0767  -5.7033   0.4667   0.4667   0.4667
     0.9173   0.9173   7.4229   7.4229   7.4229

          k =-0.1250 0.1250-0.1250 (  1155 PWs)   bands (ev):

  -122.4872 -75.1161 -75.1073 -75.1073  -5.5887   0.3882   0.4019   0.4019
     0.7799   0.7799   6.2281   7.2515   7.2515

          k =-0.2500 0.2500-0.2500 (  1152 PWs)   bands (ev):

  -122.4873 -75.1390 -75.1390 -75.0583  -5.2903   0.3174   0.3174   0.5695
     0.8549   0.8549   4.4977   6.9093   6.9093

          k =-0.3750 0.3750-0.3750 (  1155 PWs)   bands (ev):

  -122.4873 -75.1313 -75.1313 -75.1128  -4.9582   0.3857   0.3857   0.6653
     0.8268   0.8268   2.8996   6.6317   6.6317

          k = 0.5000-0.5000 0.5000 (  1158 PWs)   bands (ev):

  -122.4873 -75.1448 -75.1263 -75.1263  -4.8094   0.4235   0.4235   0.8100
     0.8100   0.8316   2.1033   6.5261   6.5261

          k = 0.0000 0.2500 0.0000 (  1155 PWs)   bands (ev):

  -122.4872 -75.1174 -75.1106 -75.1106  -5.5506   0.3500   0.3797   0.3797
     0.7966   0.8420   6.2580   6.9782   6.9782

          k =-0.1250 0.3750-0.1250 (  1151 PWs)   bands (ev):

  -122.4872 -75.1239 -75.1219 -75.0818  -5.3130   0.3185   0.4459   0.5148
     0.8264   0.8349   4.9472   6.6085   6.6729

          k =-0.2500 0.5000-0.2500 (  1141 PWs)   bands (ev):

  -122.4872 -75.1009 -75.1000 -75.0938  -4.9857   0.4557   0.5634   0.6450
     0.8557   0.9174   3.4251   6.2532   6.3546

          k = 0.6250-0.3750 0.6250 (  1149 PWs)   bands (ev):

  -122.4873 -75.1296 -75.1204 -75.0973  -4.7676   0.4652   0.5126   0.7865
     0.8466   0.9494   2.3409   5.8979   6.3063

          k = 0.5000-0.2500 0.5000 (  1147 PWs)   bands (ev):

  -122.4873 -75.1181 -75.1161 -75.1040  -4.8171   0.4650   0.4860   0.7945
     0.8411   0.9040   2.6157   5.7733   6.5137

          k = 0.3750-0.1250 0.3750 (  1143 PWs)   bands (ev):

  -122.4872 -75.1064 -75.1039 -75.0890  -5.0971   0.4669   0.5009   0.6112
     0.8470   0.8539   3.9180   5.9761   6.8747

          k = 0.2500 0.0000 0.2500 (  1159 PWs)   bands (ev):

  -122.4873 -75.1344 -75.1264 -75.1086  -5.4125   0.3551   0.3818   0.3993
     0.7420   0.7697   5.3147   6.5433   7.1808

          k = 0.0000 0.5000 0.0000 (  1174 PWs)   bands (ev):

  -122.4873 -75.1560 -75.1560 -75.1298  -5.1549   0.2416   0.4251   0.4251
     0.6453   0.6467   4.6554   6.1527   6.1527

          k =-0.1250 0.6250-0.1250 (  1147 PWs)   bands (ev):

  -122.4872 -75.1201 -75.1038 -75.0951  -4.8861   0.4425   0.5624   0.6029
     0.8453   0.8744   3.7330   5.6286   5.8563

          k = 0.7500-0.2500 0.7500 (  1150 PWs)   bands (ev):

  -122.4873 -75.1252 -75.1193 -75.1076  -4.6641   0.4636   0.5453   0.6695
     0.8347   1.0191   2.7973   4.9860   5.8084

          k = 0.6250-0.1250 0.6250 (  1139 PWs)   bands (ev):

  -122.4873 -75.1175 -75.0956 -75.0910  -4.6382   0.5581   0.6056   0.7773
     0.8596   1.1213   2.6262   4.6348   6.0703

          k = 0.5000 0.0000 0.5000 (  1135 PWs)   bands (ev):

  -122.4872 -75.0956 -75.0929 -75.0837  -4.8257   0.5646   0.5703   0.8001
     0.8647   0.9322   3.3235   4.8940   6.5064

          k = 0.0000 0.7500 0.0000 (  1150 PWs)   bands (ev):

  -122.4873 -75.1211 -75.1102 -75.1102  -4.7054   0.3639   0.6626   0.6626
     0.8128   0.8707   3.3169   5.4695   5.4695

          k = 0.8750-0.1250 0.8750 (  1144 PWs)   bands (ev):

  -122.4873 -75.1238 -75.1063 -75.0948  -4.5524   0.4563   0.6479   0.6595
     0.9177   1.0811   2.8126   4.9209   5.3773

          k = 0.7500 0.0000 0.7500 (  1144 PWs)   bands (ev):

  -122.4873 -75.1208 -75.1200 -75.0969  -4.5250   0.4879   0.6506   0.6863
     0.8460   1.1983   2.6639   4.3033   5.6101

          k = 0.0000-1.0000 0.0000 (  1162 PWs)   bands (ev):

  -122.4873 -75.1436 -75.1436 -75.1325  -4.5061   0.3680   0.6023   0.6023
     0.6962   1.0012   2.6187   5.1954   5.1954

          k =-0.2500 0.5000 0.0000 (  1137 PWs)   bands (ev):

  -122.4872 -75.0970 -75.0945 -75.0726  -5.0574   0.4509   0.5927   0.6789
     0.8516   0.9019   4.1494   5.7057   6.5021

          k = 0.6250-0.3750 0.8750 (  1145 PWs)   bands (ev):

  -122.4873 -75.1187 -75.1069 -75.1003  -4.7798   0.5005   0.5450   0.7026
     0.8581   0.9000   3.0767   5.1663   6.1322

          k = 0.5000-0.2500 0.7500 (  1154 PWs)   bands (ev):

  -122.4873 -75.1420 -75.1196 -75.1157  -4.6587   0.4736   0.5166   0.7395
     0.7445   1.0351   2.4616   5.0321   5.9414

          k = 0.7500-0.2500 1.0000 (  1142 PWs)   bands (ev):

  -122.4872 -75.1057 -75.1043 -75.0927  -4.6713   0.5010   0.6374   0.7091
     0.8875   0.9622   3.1553   5.0551   5.5028

          k = 0.6250-0.1250 0.8750 (  1153 PWs)   bands (ev):

  -122.4873 -75.1300 -75.1250 -75.1194  -4.5478   0.4521   0.5687   0.6856
     0.7995   1.1101   2.7054   4.5191   5.3412

          k = 0.5000 0.0000 0.7500 (  1143 PWs)   bands (ev):

  -122.4873 -75.1147 -75.1053 -75.1018  -4.5930   0.5402   0.5579   0.7937
     0.8153   1.1382   2.8019   4.4174   5.6595

          k =-0.2500-1.0000 0.0000 (  1152 PWs)   bands (ev):

  -122.4873 -75.1276 -75.1254 -75.1182  -4.5026   0.4345   0.6115   0.6894
     0.8122   1.0937   2.6558   4.9210   4.9435

          k =-0.5000-1.0000 0.0000 (  1144 PWs)   bands (ev):

  -122.4873 -75.1151 -75.1150 -75.1032  -4.4949   0.5214   0.6190   0.7515
     0.8088   1.2560   2.7002   4.6603   4.7105

     highest occupied level (ev):     7.4229

!    total energy              =    -419.72990402 Ry
     estimated scf accuracy    <          3.3E-09 Ry

     The total energy is the sum of the following terms:
     one-electron contribution =    -334.14472685 Ry
     hartree contribution      =     168.94658449 Ry
     xc contribution           =     -40.56992511 Ry
     ewald contribution        =    -213.96183656 Ry

     convergence has been achieved in   9 iterations

     Writing all to output data dir ./SCRATCH/zns.save/

     init_run     :      0.25s CPU      0.29s WALL (       1 calls)
     electrons    :      7.84s CPU      7.95s WALL (       1 calls)

     Called by init_run:
     wfcinit      :      0.20s CPU      0.24s WALL (       1 calls)
     potinit      :      0.02s CPU      0.02s WALL (       1 calls)
     hinit0       :      0.03s CPU      0.02s WALL (       1 calls)

     Called by electrons:
     c_bands      :      7.02s CPU      7.09s WALL (       9 calls)
     sum_band     :      0.77s CPU      0.77s WALL (       9 calls)
     v_of_rho     :      0.08s CPU      0.09s WALL (      10 calls)
     mix_rho      :      0.00s CPU      0.01s WALL (       9 calls)

     Called by c_bands:
     init_us_2    :      0.16s CPU      0.13s WALL (     551 calls)
     init_us_2:cp :      0.14s CPU      0.13s WALL (     551 calls)
     cegterg      :      6.83s CPU      6.86s WALL (     261 calls)

     Called by *egterg:
     cdiaghg      :      0.20s CPU      0.16s WALL (    1230 calls)
     h_psi        :      5.55s CPU      5.65s WALL (    1259 calls)
     g_psi        :      0.03s CPU      0.03s WALL (     969 calls)

     Called by h_psi:
     h_psi:calbec :      0.47s CPU      0.38s WALL (    1259 calls)
     vloc_psi     :      4.88s CPU      4.96s WALL (    1259 calls)
     add_vuspsi   :      0.20s CPU      0.28s WALL (    1259 calls)

     General routines
     calbec       :      0.47s CPU      0.37s WALL (    1259 calls)
     fft          :      0.03s CPU      0.03s WALL (      99 calls)
     ffts         :      0.00s CPU      0.00s WALL (       9 calls)
     fftw         :      5.17s CPU      5.09s WALL (   27791 calls)


     PWSCF        :      8.11s CPU      8.27s WALL


   This run was terminated on:  10:26:42   8Jun2024            

=------------------------------------------------------------------------------=
   JOB DONE.
=------------------------------------------------------------------------------=
