
     Program PWSCF v.7.2 starts on 26May2024 at 11:26:20 

     This program is part of the open-source Quantum ESPRESSO suite
     for quantum simulation of materials; please cite
         "P. Giannozzi et al., J. Phys.:Condens. Matter 21 395502 (2009);
         "P. Giannozzi et al., J. Phys.:Condens. Matter 29 465901 (2017);
         "P. Giannozzi et al., J. Chem. Phys. 152 154105 (2020);
          URL http://www.quantum-espresso.org", 
     in publications or presentations arising from this work. More details at
     http://www.quantum-espresso.org/quote

     Serial version
     9780 MiB available memory on the printing compute node when the environment starts

     Waiting for input...
     Reading input from standard input

     Current dimensions of program PWSCF are:
     Max number of different atomic species (ntypx) = 10
     Max number of k-points (npk) =  40000
     Max angular momentum in pseudopotentials (lmaxx) =  4


     G-vector sticks info
     --------------------
     sticks:   dense  smooth     PW     G-vecs:    dense   smooth      PW
     Sum        1735    1735    499                47831    47831    7391

     Using Slab Decomposition



     bravais-lattice index     =            2
     lattice parameter (alat)  =      10.2423  a.u.
     unit-cell volume          =     268.6175 (a.u.)^3
     number of atoms/cell      =            2
     number of atomic types    =            2
     number of electrons       =         8.00
     number of Kohn-Sham states=            4
     kinetic-energy cutoff     =     120.0000  Ry
     charge density cutoff     =     480.0000  Ry
     scf convergence threshold =      1.0E-08
     mixing beta               =       0.7000
     number of iterations used =            8  plain     mixing
     Exchange-correlation= SLA-PZ-NOGX-NOGC
                           (   1   1   0   0   0   0   0)

     celldm(1)=  10.242315  celldm(2)=   0.000000  celldm(3)=   0.000000
     celldm(4)=   0.000000  celldm(5)=   0.000000  celldm(6)=   0.000000

     crystal axes: (cart. coord. in units of alat)
               a(1) = (  -0.500000   0.000000   0.500000 )  
               a(2) = (   0.000000   0.500000   0.500000 )  
               a(3) = (  -0.500000   0.500000   0.000000 )  

     reciprocal axes: (cart. coord. in units 2 pi/alat)
               b(1) = ( -1.000000 -1.000000  1.000000 )  
               b(2) = (  1.000000  1.000000  1.000000 )  
               b(3) = ( -1.000000  1.000000 -1.000000 )  


     PseudoPot. # 1 for Zn read from file:
     /home/paolo/project_labqsm/pseudopotentials/Zn.pz-hgh.UPF
     MD5 check sum: c1979979258da2eeca1fc2dcb474678d
     Pseudo is Norm-conserving, Zval =  2.0
     Generated in analytical, separable form
     Using radial grid of 1201 points,  6 beta functions with: 
                l(1) =   0
                l(2) =   0
                l(3) =   0
                l(4) =   1
                l(5) =   1
                l(6) =   2

     PseudoPot. # 2 for S  read from file:
     /home/paolo/project_labqsm/pseudopotentials/S.pz-hgh.UPF
     MD5 check sum: a0679cb0a74c01c481c24d5fd31ffa9b
     Pseudo is Norm-conserving, Zval =  6.0
     Generated in analytical, separable form
     Using radial grid of 1151 points,  3 beta functions with: 
                l(1) =   0
                l(2) =   0
                l(3) =   1

     atomic species   valence    mass     pseudopotential
        Zn             2.00    65.38000     Zn( 1.00)
        S              6.00    32.06000     S ( 1.00)

     24 Sym. Ops. (no inversion) found



   Cartesian axes

     site n.     atom                  positions (alat units)
         1           Zn  tau(   1) = (   0.0000000   0.0000000   0.0000000  )
         2           S   tau(   2) = (   0.2500000   0.2500000   0.2500000  )

     number of k points=    29
                       cart. coord. in units 2pi/alat
        k(    1) = (   0.0000000   0.0000000   0.0000000), wk =   0.0039062
        k(    2) = (  -0.1250000   0.1250000  -0.1250000), wk =   0.0312500
        k(    3) = (  -0.2500000   0.2500000  -0.2500000), wk =   0.0312500
        k(    4) = (  -0.3750000   0.3750000  -0.3750000), wk =   0.0312500
        k(    5) = (   0.5000000  -0.5000000   0.5000000), wk =   0.0156250
        k(    6) = (   0.0000000   0.2500000   0.0000000), wk =   0.0234375
        k(    7) = (  -0.1250000   0.3750000  -0.1250000), wk =   0.0937500
        k(    8) = (  -0.2500000   0.5000000  -0.2500000), wk =   0.0937500
        k(    9) = (   0.6250000  -0.3750000   0.6250000), wk =   0.0937500
        k(   10) = (   0.5000000  -0.2500000   0.5000000), wk =   0.0937500
        k(   11) = (   0.3750000  -0.1250000   0.3750000), wk =   0.0937500
        k(   12) = (   0.2500000   0.0000000   0.2500000), wk =   0.0468750
        k(   13) = (   0.0000000   0.5000000   0.0000000), wk =   0.0234375
        k(   14) = (  -0.1250000   0.6250000  -0.1250000), wk =   0.0937500
        k(   15) = (   0.7500000  -0.2500000   0.7500000), wk =   0.0937500
        k(   16) = (   0.6250000  -0.1250000   0.6250000), wk =   0.0937500
        k(   17) = (   0.5000000   0.0000000   0.5000000), wk =   0.0468750
        k(   18) = (   0.0000000   0.7500000   0.0000000), wk =   0.0234375
        k(   19) = (   0.8750000  -0.1250000   0.8750000), wk =   0.0937500
        k(   20) = (   0.7500000   0.0000000   0.7500000), wk =   0.0468750
        k(   21) = (   0.0000000  -1.0000000   0.0000000), wk =   0.0117188
        k(   22) = (  -0.2500000   0.5000000   0.0000000), wk =   0.0937500
        k(   23) = (   0.6250000  -0.3750000   0.8750000), wk =   0.1875000
        k(   24) = (   0.5000000  -0.2500000   0.7500000), wk =   0.0937500
        k(   25) = (   0.7500000  -0.2500000   1.0000000), wk =   0.0937500
        k(   26) = (   0.6250000  -0.1250000   0.8750000), wk =   0.1875000
        k(   27) = (   0.5000000   0.0000000   0.7500000), wk =   0.0937500
        k(   28) = (  -0.2500000  -1.0000000   0.0000000), wk =   0.0468750
        k(   29) = (  -0.5000000  -1.0000000   0.0000000), wk =   0.0234375

     Dense  grid:    47831 G-vectors     FFT dimensions: (  54,  54,  54)

     Estimated max dynamical RAM per process >      51.61 MB

     Initial potential from superposition of free atoms

     starting charge       6.0000, renormalised to       8.0000
     Starting wfcs are   18 randomized atomic wfcs

     total cpu time spent up to now is        2.3 secs

     Self-consistent Calculation

     iteration #  1     ecut=   120.00 Ry     beta= 0.70
     Davidson diagonalization with overlap
     ethr =  1.00E-02,  avg # of iterations =  2.0

     total cpu time spent up to now is        3.6 secs

     total energy              =     -22.67009754 Ry
     estimated scf accuracy    <       0.64813030 Ry

     iteration #  2     ecut=   120.00 Ry     beta= 0.70
     Davidson diagonalization with overlap
     ethr =  8.10E-03,  avg # of iterations =  2.0

     total cpu time spent up to now is        5.0 secs

     total energy              =     -22.87508291 Ry
     estimated scf accuracy    <       0.12533417 Ry

     iteration #  3     ecut=   120.00 Ry     beta= 0.70
     Davidson diagonalization with overlap
     ethr =  1.57E-03,  avg # of iterations =  2.0

     negative rho (up, down):  2.038E-08 0.000E+00

     total cpu time spent up to now is        6.4 secs

     total energy              =     -22.88885525 Ry
     estimated scf accuracy    <       0.00366649 Ry

     iteration #  4     ecut=   120.00 Ry     beta= 0.70
     Davidson diagonalization with overlap
     ethr =  4.58E-05,  avg # of iterations =  2.2

     total cpu time spent up to now is        7.8 secs

     total energy              =     -22.89028543 Ry
     estimated scf accuracy    <       0.00231422 Ry

     iteration #  5     ecut=   120.00 Ry     beta= 0.70
     Davidson diagonalization with overlap
     ethr =  2.89E-05,  avg # of iterations =  1.3

     total cpu time spent up to now is        9.0 secs

     total energy              =     -22.89037853 Ry
     estimated scf accuracy    <       0.00021424 Ry

     iteration #  6     ecut=   120.00 Ry     beta= 0.70
     Davidson diagonalization with overlap
     ethr =  2.68E-06,  avg # of iterations =  2.5

     total cpu time spent up to now is       10.5 secs

     total energy              =     -22.89045357 Ry
     estimated scf accuracy    <       0.00000030 Ry

     iteration #  7     ecut=   120.00 Ry     beta= 0.70
     Davidson diagonalization with overlap
     ethr =  3.73E-09,  avg # of iterations =  6.4

     total cpu time spent up to now is       12.9 secs

     total energy              =     -22.89045573 Ry
     estimated scf accuracy    <       0.00000060 Ry

     iteration #  8     ecut=   120.00 Ry     beta= 0.70
     Davidson diagonalization with overlap
     ethr =  3.73E-09,  avg # of iterations =  2.3

     total cpu time spent up to now is       14.4 secs

     total energy              =     -22.89045588 Ry
     estimated scf accuracy    <       0.00000003 Ry

     iteration #  9     ecut=   120.00 Ry     beta= 0.70
     Davidson diagonalization with overlap
     ethr =  4.12E-10,  avg # of iterations =  2.0

     total cpu time spent up to now is       15.8 secs

     End of self-consistent calculation

          k = 0.0000 0.0000 0.0000 (  5961 PWs)   bands (ev):

   -10.0702   2.3645   2.3645   2.3645

          k =-0.1250 0.1250-0.1250 (  5967 PWs)   bands (ev):

    -9.9457   1.2506   2.2456   2.2456

          k =-0.2500 0.2500-0.2500 (  5988 PWs)   bands (ev):

    -9.6069  -0.4874   1.9888   1.9888

          k =-0.3750 0.3750-0.3750 (  5957 PWs)   bands (ev):

    -9.1913  -1.8846   1.7646   1.7646

          k = 0.5000-0.5000 0.5000 (  5996 PWs)   bands (ev):

    -8.9851  -2.4382   1.6793   1.6793

          k = 0.0000 0.2500 0.0000 (  5966 PWs)   bands (ev):

    -9.9043   1.2649   2.0126   2.0126

          k =-0.1250 0.3750-0.1250 (  5962 PWs)   bands (ev):

    -9.6358  -0.0402   1.6959   1.7468

          k =-0.2500 0.5000-0.2500 (  5973 PWs)   bands (ev):

    -9.2363  -1.4417   1.3688   1.4855

          k = 0.6250-0.3750 0.6250 (  5958 PWs)   bands (ev):

    -8.9389  -2.2518   1.0463   1.4730

          k = 0.5000-0.2500 0.5000 (  5961 PWs)   bands (ev):

    -9.0087  -2.0715   0.9310   1.6575

          k = 0.3750-0.1250 0.3750 (  5977 PWs)   bands (ev):

    -9.3756  -1.0142   1.1001   1.9587

          k = 0.2500 0.0000 0.2500 (  5961 PWs)   bands (ev):

    -9.7488   0.3397   1.6134   2.2169

          k = 0.0000 0.5000 0.0000 (  5982 PWs)   bands (ev):

    -9.4524  -0.3306   1.3089   1.3089

          k =-0.1250 0.6250-0.1250 (  5961 PWs)   bands (ev):

    -9.1223  -1.2098   0.8143   1.0531

          k = 0.7500-0.2500 0.7500 (  5973 PWs)   bands (ev):

    -8.8177  -1.8827   0.1620   1.0361

          k = 0.6250-0.1250 0.6250 (  5954 PWs)   bands (ev):

    -8.7745  -1.9373  -0.2172   1.2616

          k = 0.5000 0.0000 0.5000 (  5975 PWs)   bands (ev):

    -9.0318  -1.4911   0.0543   1.6361

          k = 0.0000 0.7500 0.0000 (  5950 PWs)   bands (ev):

    -8.8958  -1.6068   0.7325   0.7325

          k = 0.8750-0.1250 0.8750 (  5953 PWs)   bands (ev):

    -8.6802  -1.9467   0.1920   0.6608

          k = 0.7500 0.0000 0.7500 (  5936 PWs)   bands (ev):

    -8.6274  -1.8841  -0.5002   0.8628

          k = 0.0000-1.0000 0.0000 (  5962 PWs)   bands (ev):

    -8.6174  -2.1286   0.5188   0.5188

          k =-0.2500 0.5000 0.0000 (  5975 PWs)   bands (ev):

    -9.3326  -0.8269   0.8533   1.6084

          k = 0.6250-0.3750 0.8750 (  5963 PWs)   bands (ev):

    -8.9709  -1.6896   0.3342   1.2958

          k = 0.5000-0.2500 0.7500 (  5936 PWs)   bands (ev):

    -8.7969  -2.0829   0.1955   1.1377

          k = 0.7500-0.2500 1.0000 (  5968 PWs)   bands (ev):

    -8.8382  -1.6650   0.2804   0.7215

          k = 0.6250-0.1250 0.8750 (  5945 PWs)   bands (ev):

    -8.6547  -1.8495  -0.2941   0.5833

          k = 0.5000 0.0000 0.7500 (  5951 PWs)   bands (ev):

    -8.7171  -1.7689  -0.4210   0.8635

          k =-0.2500-1.0000 0.0000 (  5946 PWs)   bands (ev):

    -8.6008  -1.9810   0.1292   0.2732

          k =-0.5000-1.0000 0.0000 (  5940 PWs)   bands (ev):

    -8.5841  -1.7809  -0.2808   0.0585

     highest occupied level (ev):     2.3645

!    total energy              =     -22.89045589 Ry
     estimated scf accuracy    <          1.1E-09 Ry

     The total energy is the sum of the following terms:
     one-electron contribution =      -1.15819565 Ry
     hartree contribution      =       3.49091793 Ry
     xc contribution           =      -5.43849579 Ry
     ewald contribution        =     -19.78468237 Ry

     convergence has been achieved in   9 iterations

     Writing all to output data dir ./SCRATCH/zns.save/

     init_run     :      2.17s CPU      2.22s WALL (       1 calls)
     electrons    :     13.47s CPU     13.59s WALL (       1 calls)

     Called by init_run:
     wfcinit      :      1.95s CPU      1.97s WALL (       1 calls)
     potinit      :      0.00s CPU      0.03s WALL (       1 calls)
     hinit0       :      0.19s CPU      0.18s WALL (       1 calls)

     Called by electrons:
     c_bands      :     11.48s CPU     11.59s WALL (       9 calls)
     sum_band     :      1.88s CPU      1.86s WALL (       9 calls)
     v_of_rho     :      0.09s CPU      0.08s WALL (      10 calls)
     mix_rho      :      0.02s CPU      0.07s WALL (       9 calls)

     Called by c_bands:
     init_us_2    :      0.53s CPU      0.61s WALL (     551 calls)
     init_us_2:cp :      0.53s CPU      0.61s WALL (     551 calls)
     cegterg      :     10.55s CPU     10.86s WALL (     261 calls)

     Called by *egterg:
     cdiaghg      :      0.00s CPU      0.02s WALL (     921 calls)
     h_psi        :     11.67s CPU     11.86s WALL (     950 calls)
     g_psi        :      0.02s CPU      0.04s WALL (     660 calls)

     Called by h_psi:
     h_psi:calbec :      0.36s CPU      0.48s WALL (     950 calls)
     vloc_psi     :     10.80s CPU     11.02s WALL (     950 calls)
     add_vuspsi   :      0.48s CPU      0.33s WALL (     950 calls)

     General routines
     calbec       :      0.36s CPU      0.47s WALL (     950 calls)
     fft          :      0.09s CPU      0.06s WALL (      29 calls)
     ffts         :      0.05s CPU      0.02s WALL (       9 calls)
     fftw         :     11.69s CPU     11.54s WALL (    8622 calls)


     PWSCF        :     15.69s CPU     15.87s WALL


   This run was terminated on:  11:26:36  26May2024            

=------------------------------------------------------------------------------=
   JOB DONE.
=------------------------------------------------------------------------------=
