
     Program PWSCF v.7.2 starts on  8Jun2024 at 10:30:51 

     This program is part of the open-source Quantum ESPRESSO suite
     for quantum simulation of materials; please cite
         "P. Giannozzi et al., J. Phys.:Condens. Matter 21 395502 (2009);
         "P. Giannozzi et al., J. Phys.:Condens. Matter 29 465901 (2017);
         "P. Giannozzi et al., J. Chem. Phys. 152 154105 (2020);
          URL http://www.quantum-espresso.org", 
     in publications or presentations arising from this work. More details at
     http://www.quantum-espresso.org/quote

     Serial version
     9309 MiB available memory on the printing compute node when the environment starts

     Waiting for input...
     Reading input from standard input

     Current dimensions of program PWSCF are:
     Max number of different atomic species (ntypx) = 10
     Max number of k-points (npk) =  40000
     Max angular momentum in pseudopotentials (lmaxx) =  4


     G-vector sticks info
     --------------------
     sticks:   dense  smooth     PW     G-vecs:    dense   smooth      PW
     Sum         745     745    235                13635    13635    2277

     Using Slab Decomposition



     bravais-lattice index     =            2
     lattice parameter (alat)  =      10.4472  a.u.
     unit-cell volume          =     285.0591 (a.u.)^3
     number of atoms/cell      =            2
     number of atomic types    =            2
     number of electrons       =        26.00
     number of Kohn-Sham states=           13
     kinetic-energy cutoff     =      50.0000  Ry
     charge density cutoff     =     200.0000  Ry
     scf convergence threshold =      1.0E-08
     mixing beta               =       0.7000
     number of iterations used =            8  plain     mixing
     Exchange-correlation= PBE
                           (   1   4   3   4   0   0   0)

     celldm(1)=  10.447161  celldm(2)=   0.000000  celldm(3)=   0.000000
     celldm(4)=   0.000000  celldm(5)=   0.000000  celldm(6)=   0.000000

     crystal axes: (cart. coord. in units of alat)
               a(1) = (  -0.500000   0.000000   0.500000 )  
               a(2) = (   0.000000   0.500000   0.500000 )  
               a(3) = (  -0.500000   0.500000   0.000000 )  

     reciprocal axes: (cart. coord. in units 2 pi/alat)
               b(1) = ( -1.000000 -1.000000  1.000000 )  
               b(2) = (  1.000000  1.000000  1.000000 )  
               b(3) = ( -1.000000  1.000000 -1.000000 )  


     PseudoPot. # 1 for Zn read from file:
     /home/paolo/project_labqsm/pseudopotentials/Zn_ONCV_PBE-1.2.upf
     MD5 check sum: 732f41c0cd6489a4b50a33b4ec99a2d3
     Pseudo is Norm-conserving, Zval = 20.0
     Generated using ONCVPSP code by D. R. Hamann
     Using radial grid of  602 points,  6 beta functions with: 
                l(1) =   0
                l(2) =   0
                l(3) =   1
                l(4) =   1
                l(5) =   2
                l(6) =   2

     PseudoPot. # 2 for S  read from file:
     /home/paolo/project_labqsm/pseudopotentials/S_ONCV_PBE-1.2.upf
     MD5 check sum: f9d020296ee6110346977bfd66d424f6
     Pseudo is Norm-conserving, Zval =  6.0
     Generated using ONCVPSP code by D. R. Hamann
     Using radial grid of  602 points,  4 beta functions with: 
                l(1) =   0
                l(2) =   0
                l(3) =   1
                l(4) =   1

     atomic species   valence    mass     pseudopotential
        Zn            20.00    65.38000     Zn( 1.00)
        S              6.00    32.06000     S ( 1.00)

     24 Sym. Ops. (no inversion) found



   Cartesian axes

     site n.     atom                  positions (alat units)
         1           Zn  tau(   1) = (   0.0000000   0.0000000   0.0000000  )
         2           S   tau(   2) = (   0.2500000   0.2500000   0.2500000  )

     number of k points=    29
                       cart. coord. in units 2pi/alat
        k(    1) = (   0.0000000   0.0000000   0.0000000), wk =   0.0039062
        k(    2) = (  -0.1250000   0.1250000  -0.1250000), wk =   0.0312500
        k(    3) = (  -0.2500000   0.2500000  -0.2500000), wk =   0.0312500
        k(    4) = (  -0.3750000   0.3750000  -0.3750000), wk =   0.0312500
        k(    5) = (   0.5000000  -0.5000000   0.5000000), wk =   0.0156250
        k(    6) = (   0.0000000   0.2500000   0.0000000), wk =   0.0234375
        k(    7) = (  -0.1250000   0.3750000  -0.1250000), wk =   0.0937500
        k(    8) = (  -0.2500000   0.5000000  -0.2500000), wk =   0.0937500
        k(    9) = (   0.6250000  -0.3750000   0.6250000), wk =   0.0937500
        k(   10) = (   0.5000000  -0.2500000   0.5000000), wk =   0.0937500
        k(   11) = (   0.3750000  -0.1250000   0.3750000), wk =   0.0937500
        k(   12) = (   0.2500000   0.0000000   0.2500000), wk =   0.0468750
        k(   13) = (   0.0000000   0.5000000   0.0000000), wk =   0.0234375
        k(   14) = (  -0.1250000   0.6250000  -0.1250000), wk =   0.0937500
        k(   15) = (   0.7500000  -0.2500000   0.7500000), wk =   0.0937500
        k(   16) = (   0.6250000  -0.1250000   0.6250000), wk =   0.0937500
        k(   17) = (   0.5000000   0.0000000   0.5000000), wk =   0.0468750
        k(   18) = (   0.0000000   0.7500000   0.0000000), wk =   0.0234375
        k(   19) = (   0.8750000  -0.1250000   0.8750000), wk =   0.0937500
        k(   20) = (   0.7500000   0.0000000   0.7500000), wk =   0.0468750
        k(   21) = (   0.0000000  -1.0000000   0.0000000), wk =   0.0117188
        k(   22) = (  -0.2500000   0.5000000   0.0000000), wk =   0.0937500
        k(   23) = (   0.6250000  -0.3750000   0.8750000), wk =   0.1875000
        k(   24) = (   0.5000000  -0.2500000   0.7500000), wk =   0.0937500
        k(   25) = (   0.7500000  -0.2500000   1.0000000), wk =   0.0937500
        k(   26) = (   0.6250000  -0.1250000   0.8750000), wk =   0.1875000
        k(   27) = (   0.5000000   0.0000000   0.7500000), wk =   0.0937500
        k(   28) = (  -0.2500000  -1.0000000   0.0000000), wk =   0.0468750
        k(   29) = (  -0.5000000  -1.0000000   0.0000000), wk =   0.0234375

     Dense  grid:    13635 G-vectors     FFT dimensions: (  36,  36,  36)

     Estimated max dynamical RAM per process >      23.75 MB

     Initial potential from superposition of free atoms

     starting charge      25.9670, renormalised to      26.0000
     Starting wfcs are random

     total cpu time spent up to now is        0.4 secs

     Self-consistent Calculation

     iteration #  1     ecut=    50.00 Ry     beta= 0.70
     Davidson diagonalization with overlap
     ethr =  1.00E-02,  avg # of iterations = 12.8

     total cpu time spent up to now is        3.7 secs

     total energy              =    -420.19500646 Ry
     estimated scf accuracy    <       0.42569527 Ry

     iteration #  2     ecut=    50.00 Ry     beta= 0.70
     Davidson diagonalization with overlap
     ethr =  1.64E-03,  avg # of iterations =  3.4

     total cpu time spent up to now is        5.0 secs

     total energy              =    -420.73757484 Ry
     estimated scf accuracy    <       0.57762136 Ry

     iteration #  3     ecut=    50.00 Ry     beta= 0.70
     Davidson diagonalization with overlap
     ethr =  1.64E-03,  avg # of iterations =  2.0

     total cpu time spent up to now is        6.1 secs

     total energy              =    -420.78549185 Ry
     estimated scf accuracy    <       0.04981510 Ry

     iteration #  4     ecut=    50.00 Ry     beta= 0.70
     Davidson diagonalization with overlap
     ethr =  1.92E-04,  avg # of iterations =  2.0

     total cpu time spent up to now is        7.1 secs

     total energy              =    -420.78849927 Ry
     estimated scf accuracy    <       0.00707473 Ry

     iteration #  5     ecut=    50.00 Ry     beta= 0.70
     Davidson diagonalization with overlap
     ethr =  2.72E-05,  avg # of iterations =  2.2

     total cpu time spent up to now is        8.1 secs

     total energy              =    -420.78997188 Ry
     estimated scf accuracy    <       0.00017474 Ry

     iteration #  6     ecut=    50.00 Ry     beta= 0.70
     Davidson diagonalization with overlap
     ethr =  6.72E-07,  avg # of iterations =  3.5

     total cpu time spent up to now is        9.3 secs

     total energy              =    -420.79006601 Ry
     estimated scf accuracy    <       0.00000916 Ry

     iteration #  7     ecut=    50.00 Ry     beta= 0.70
     Davidson diagonalization with overlap
     ethr =  3.52E-08,  avg # of iterations =  2.4

     total cpu time spent up to now is       10.4 secs

     total energy              =    -420.79006909 Ry
     estimated scf accuracy    <       0.00000028 Ry

     iteration #  8     ecut=    50.00 Ry     beta= 0.70
     Davidson diagonalization with overlap
     ethr =  1.09E-09,  avg # of iterations =  2.8

     total cpu time spent up to now is       11.4 secs

     total energy              =    -420.79006915 Ry
     estimated scf accuracy    <       0.00000001 Ry

     iteration #  9     ecut=    50.00 Ry     beta= 0.70
     Davidson diagonalization with overlap
     ethr =  5.19E-11,  avg # of iterations =  3.5

     total cpu time spent up to now is       12.6 secs

     End of self-consistent calculation

          k = 0.0000 0.0000 0.0000 (  1687 PWs)   bands (ev):

  -118.9808 -72.9075 -72.9075 -72.9075  -6.1455   0.3174   0.3174   0.3174
     0.7235   0.7235   6.5450   6.5450   6.5450

          k =-0.1250 0.1250-0.1250 (  1720 PWs)   bands (ev):

  -118.9809 -72.9109 -72.9099 -72.9099  -6.0425   0.3066   0.3093   0.3093
     0.6948   0.6948   5.4561   6.4074   6.4074

          k =-0.2500 0.2500-0.2500 (  1700 PWs)   bands (ev):

  -118.9808 -72.9095 -72.9095 -72.9080  -5.7755   0.3560   0.3560   0.3869
     0.7139   0.7139   3.8467   6.1240   6.1240

          k =-0.3750 0.3750-0.3750 (  1700 PWs)   bands (ev):

  -118.9808 -72.9102 -72.9091 -72.9091  -5.4768   0.3936   0.3936   0.5951
     0.7167   0.7167   2.4364   5.8693   5.8693

          k = 0.5000-0.5000 0.5000 (  1694 PWs)   bands (ev):

  -118.9808 -72.9116 -72.9082 -72.9082  -5.3416   0.4129   0.4129   0.7301
     0.7301   0.8763   1.6851   5.7717   5.7717

          k = 0.0000 0.2500 0.0000 (  1720 PWs)   bands (ev):

  -118.9809 -72.9106 -72.9102 -72.9102  -6.0081   0.2919   0.3266   0.3266
     0.6796   0.6997   5.4704   6.1774   6.1774

          k =-0.1250 0.3750-0.1250 (  1705 PWs)   bands (ev):

  -118.9808 -72.9103 -72.9100 -72.9081  -5.7952   0.3062   0.3754   0.3830
     0.6991   0.7199   4.2682   5.8422   5.8979

          k =-0.2500 0.5000-0.2500 (  1689 PWs)   bands (ev):

  -118.9808 -72.9090 -72.9085 -72.9084  -5.5030   0.3792   0.4197   0.5115
     0.7194   0.7482   2.9026   5.5170   5.6009

          k = 0.6250-0.3750 0.6250 (  1709 PWs)   bands (ev):

  -118.9809 -72.9111 -72.9102 -72.9096  -5.3065   0.3971   0.4217   0.6721
     0.7306   0.8559   1.9110   5.1935   5.5649

          k = 0.5000-0.2500 0.5000 (  1708 PWs)   bands (ev):

  -118.9809 -72.9106 -72.9100 -72.9097  -5.3517   0.3998   0.4065   0.6726
     0.7103   0.7773   2.1640   5.0848   5.7510

          k = 0.3750-0.1250 0.3750 (  1699 PWs)   bands (ev):

  -118.9808 -72.9099 -72.9093 -72.9087  -5.6028   0.3832   0.3840   0.4443
     0.7041   0.7343   3.3305   5.2659   6.0753

          k = 0.2500 0.0000 0.2500 (  1727 PWs)   bands (ev):

  -118.9809 -72.9116 -72.9112 -72.9099  -5.8843   0.3118   0.3191   0.3440
     0.6802   0.7096   4.6109   5.7823   6.3544

          k = 0.0000 0.5000 0.0000 (  1700 PWs)   bands (ev):

  -118.9808 -72.9099 -72.9099 -72.9089  -5.6520   0.2921   0.4329   0.4329
     0.6747   0.7279   4.0292   5.4425   5.4425

          k =-0.1250 0.6250-0.1250 (  1700 PWs)   bands (ev):

  -118.9808 -72.9100 -72.9100 -72.9094  -5.4137   0.3395   0.4757   0.4909
     0.7082   0.7421   3.1663   4.9602   5.1566

          k = 0.7500-0.2500 0.7500 (  1703 PWs)   bands (ev):

  -118.9808 -72.9104 -72.9099 -72.9098  -5.2162   0.3963   0.4829   0.5943
     0.7423   0.8640   2.3335   4.3713   5.1182

          k = 0.6250-0.1250 0.6250 (  1708 PWs)   bands (ev):

  -118.9809 -72.9107 -72.9103 -72.9101  -5.1938   0.4056   0.4690   0.6642
     0.7122   0.9215   2.1752   4.0344   5.3461

          k = 0.5000 0.0000 0.5000 (  1696 PWs)   bands (ev):

  -118.9808 -72.9095 -72.9092 -72.9091  -5.3617   0.4129   0.4326   0.5939
     0.7062   0.7648   2.7857   4.2831   5.7363

          k = 0.0000 0.7500 0.0000 (  1700 PWs)   bands (ev):

  -118.9808 -72.9102 -72.9102 -72.9098  -5.2534   0.3205   0.5374   0.5374
     0.7421   0.7539   2.8054   4.8073   4.8073

          k = 0.8750-0.1250 0.8750 (  1699 PWs)   bands (ev):

  -118.9808 -72.9105 -72.9103 -72.9096  -5.1168   0.3612   0.5541   0.5742
     0.7538   0.8883   2.3586   4.3124   4.7180

          k = 0.7500 0.0000 0.7500 (  1710 PWs)   bands (ev):

  -118.9809 -72.9110 -72.9108 -72.9103  -5.0933   0.3917   0.5303   0.6129
     0.7335   0.9903   2.2235   3.7451   4.9293

          k = 0.0000-1.0000 0.0000 (  1724 PWs)   bands (ev):

  -118.9809 -72.9121 -72.9121 -72.9117  -5.0731   0.3271   0.5654   0.5654
     0.7435   0.8769   2.2037   4.5595   4.5595

          k =-0.2500 0.5000 0.0000 (  1696 PWs)   bands (ev):

  -118.9808 -72.9094 -72.9093 -72.9090  -5.5676   0.3554   0.4184   0.4555
     0.6942   0.7383   3.5233   5.0209   5.7367

          k = 0.6250-0.3750 0.8750 (  1701 PWs)   bands (ev):

  -118.9808 -72.9102 -72.9096 -72.9093  -5.3194   0.4039   0.4426   0.5901
     0.7275   0.7797   2.5819   4.5289   5.4094

          k = 0.5000-0.2500 0.7500 (  1704 PWs)   bands (ev):

  -118.9808 -72.9108 -72.9098 -72.9095  -5.2095   0.4122   0.4604   0.6734
     0.7125   0.9387   2.0263   4.4080   5.2418

          k = 0.7500-0.2500 1.0000 (  1693 PWs)   bands (ev):

  -118.9808 -72.9103 -72.9096 -72.9086  -5.2226   0.3861   0.4976   0.5674
     0.7510   0.8150   2.6493   4.4289   4.8369

          k = 0.6250-0.1250 0.8750 (  1700 PWs)   bands (ev):

  -118.9808 -72.9105 -72.9099 -72.9095  -5.1115   0.4188   0.5085   0.6332
     0.7195   0.9852   2.2622   3.9475   4.6960

          k = 0.5000 0.0000 0.7500 (  1702 PWs)   bands (ev):

  -118.9808 -72.9104 -72.9099 -72.9096  -5.1540   0.4308   0.4803   0.6608
     0.6975   0.9395   2.3388   3.8478   4.9795

          k =-0.2500-1.0000 0.0000 (  1694 PWs)   bands (ev):

  -118.9808 -72.9104 -72.9096 -72.9091  -5.0702   0.3914   0.5491   0.6016
     0.7503   0.9839   2.2311   4.3115   4.3300

          k =-0.5000-1.0000 0.0000 (  1708 PWs)   bands (ev):

  -118.9809 -72.9105 -72.9105 -72.9104  -5.0680   0.4271   0.5262   0.6612
     0.6679   1.0459   2.2562   4.0737   4.1178

     highest occupied level (ev):     6.5450

!    total energy              =    -420.79006916 Ry
     estimated scf accuracy    <          4.6E-09 Ry

     The total energy is the sum of the following terms:
     one-electron contribution =    -345.47128339 Ry
     hartree contribution      =     175.34957236 Ry
     xc contribution           =     -40.90185172 Ry
     ewald contribution        =    -209.76650641 Ry

     convergence has been achieved in   9 iterations

     Writing all to output data dir ./SCRATCH/zns.save/

     init_run     :      0.39s CPU      0.40s WALL (       1 calls)
     electrons    :     11.92s CPU     12.20s WALL (       1 calls)

     Called by init_run:
     wfcinit      :      0.33s CPU      0.33s WALL (       1 calls)
     potinit      :      0.02s CPU      0.03s WALL (       1 calls)
     hinit0       :      0.03s CPU      0.03s WALL (       1 calls)

     Called by electrons:
     c_bands      :     10.64s CPU     10.86s WALL (       9 calls)
     sum_band     :      1.14s CPU      1.17s WALL (       9 calls)
     v_of_rho     :      0.12s CPU      0.16s WALL (      10 calls)
     mix_rho      :      0.02s CPU      0.02s WALL (       9 calls)

     Called by c_bands:
     init_us_2    :      0.20s CPU      0.19s WALL (     551 calls)
     init_us_2:cp :      0.20s CPU      0.19s WALL (     551 calls)
     cegterg      :     10.36s CPU     10.52s WALL (     261 calls)

     Called by *egterg:
     cdiaghg      :      0.22s CPU      0.16s WALL (    1267 calls)
     h_psi        :      8.50s CPU      8.74s WALL (    1296 calls)
     g_psi        :      0.02s CPU      0.04s WALL (    1006 calls)

     Called by h_psi:
     h_psi:calbec :      0.61s CPU      0.58s WALL (    1296 calls)
     vloc_psi     :      7.41s CPU      7.69s WALL (    1296 calls)
     add_vuspsi   :      0.45s CPU      0.42s WALL (    1296 calls)

     General routines
     calbec       :      0.61s CPU      0.58s WALL (    1296 calls)
     fft          :      0.09s CPU      0.04s WALL (      99 calls)
     ffts         :      0.00s CPU      0.00s WALL (       9 calls)
     fftw         :      7.52s CPU      7.82s WALL (   28187 calls)


     PWSCF        :     12.34s CPU     12.63s WALL


   This run was terminated on:  10:31: 3   8Jun2024            

=------------------------------------------------------------------------------=
   JOB DONE.
=------------------------------------------------------------------------------=
