
     Program PWSCF v.7.2 starts on 26May2024 at 11:31:49 

     This program is part of the open-source Quantum ESPRESSO suite
     for quantum simulation of materials; please cite
         "P. Giannozzi et al., J. Phys.:Condens. Matter 21 395502 (2009);
         "P. Giannozzi et al., J. Phys.:Condens. Matter 29 465901 (2017);
         "P. Giannozzi et al., J. Chem. Phys. 152 154105 (2020);
          URL http://www.quantum-espresso.org", 
     in publications or presentations arising from this work. More details at
     http://www.quantum-espresso.org/quote

     Serial version
     9750 MiB available memory on the printing compute node when the environment starts

     Waiting for input...
     Reading input from standard input

     Current dimensions of program PWSCF are:
     Max number of different atomic species (ntypx) = 10
     Max number of k-points (npk) =  40000
     Max angular momentum in pseudopotentials (lmaxx) =  4


     G-vector sticks info
     --------------------
     sticks:   dense  smooth     PW     G-vecs:    dense   smooth      PW
     Sum         595     595    199                 9721     9721    1759

     Using Slab Decomposition



     bravais-lattice index     =            2
     lattice parameter (alat)  =      10.4472  a.u.
     unit-cell volume          =     285.0591 (a.u.)^3
     number of atoms/cell      =            2
     number of atomic types    =            2
     number of electrons       =         8.00
     number of Kohn-Sham states=            4
     kinetic-energy cutoff     =      40.0000  Ry
     charge density cutoff     =     160.0000  Ry
     scf convergence threshold =      1.0E-08
     mixing beta               =       0.7000
     number of iterations used =            8  plain     mixing
     Exchange-correlation= SLA-PZ-NOGX-NOGC
                           (   1   1   0   0   0   0   0)

     celldm(1)=  10.447161  celldm(2)=   0.000000  celldm(3)=   0.000000
     celldm(4)=   0.000000  celldm(5)=   0.000000  celldm(6)=   0.000000

     crystal axes: (cart. coord. in units of alat)
               a(1) = (  -0.500000   0.000000   0.500000 )  
               a(2) = (   0.000000   0.500000   0.500000 )  
               a(3) = (  -0.500000   0.500000   0.000000 )  

     reciprocal axes: (cart. coord. in units 2 pi/alat)
               b(1) = ( -1.000000 -1.000000  1.000000 )  
               b(2) = (  1.000000  1.000000  1.000000 )  
               b(3) = ( -1.000000  1.000000 -1.000000 )  


     PseudoPot. # 1 for Zn read from file:
     /home/paolo/project_labqsm/pseudopotentials/Zn.pz-hgh.UPF
     MD5 check sum: c1979979258da2eeca1fc2dcb474678d
     Pseudo is Norm-conserving, Zval =  2.0
     Generated in analytical, separable form
     Using radial grid of 1201 points,  6 beta functions with: 
                l(1) =   0
                l(2) =   0
                l(3) =   0
                l(4) =   1
                l(5) =   1
                l(6) =   2

     PseudoPot. # 2 for S  read from file:
     /home/paolo/project_labqsm/pseudopotentials/S.pz-hgh.UPF
     MD5 check sum: a0679cb0a74c01c481c24d5fd31ffa9b
     Pseudo is Norm-conserving, Zval =  6.0
     Generated in analytical, separable form
     Using radial grid of 1151 points,  3 beta functions with: 
                l(1) =   0
                l(2) =   0
                l(3) =   1

     atomic species   valence    mass     pseudopotential
        Zn             2.00    65.38000     Zn( 1.00)
        S              6.00    32.06000     S ( 1.00)

     24 Sym. Ops. (no inversion) found



   Cartesian axes

     site n.     atom                  positions (alat units)
         1           Zn  tau(   1) = (   0.0000000   0.0000000   0.0000000  )
         2           S   tau(   2) = (   0.2500000   0.2500000   0.2500000  )

     number of k points=    29
                       cart. coord. in units 2pi/alat
        k(    1) = (   0.0000000   0.0000000   0.0000000), wk =   0.0039062
        k(    2) = (  -0.1250000   0.1250000  -0.1250000), wk =   0.0312500
        k(    3) = (  -0.2500000   0.2500000  -0.2500000), wk =   0.0312500
        k(    4) = (  -0.3750000   0.3750000  -0.3750000), wk =   0.0312500
        k(    5) = (   0.5000000  -0.5000000   0.5000000), wk =   0.0156250
        k(    6) = (   0.0000000   0.2500000   0.0000000), wk =   0.0234375
        k(    7) = (  -0.1250000   0.3750000  -0.1250000), wk =   0.0937500
        k(    8) = (  -0.2500000   0.5000000  -0.2500000), wk =   0.0937500
        k(    9) = (   0.6250000  -0.3750000   0.6250000), wk =   0.0937500
        k(   10) = (   0.5000000  -0.2500000   0.5000000), wk =   0.0937500
        k(   11) = (   0.3750000  -0.1250000   0.3750000), wk =   0.0937500
        k(   12) = (   0.2500000   0.0000000   0.2500000), wk =   0.0468750
        k(   13) = (   0.0000000   0.5000000   0.0000000), wk =   0.0234375
        k(   14) = (  -0.1250000   0.6250000  -0.1250000), wk =   0.0937500
        k(   15) = (   0.7500000  -0.2500000   0.7500000), wk =   0.0937500
        k(   16) = (   0.6250000  -0.1250000   0.6250000), wk =   0.0937500
        k(   17) = (   0.5000000   0.0000000   0.5000000), wk =   0.0468750
        k(   18) = (   0.0000000   0.7500000   0.0000000), wk =   0.0234375
        k(   19) = (   0.8750000  -0.1250000   0.8750000), wk =   0.0937500
        k(   20) = (   0.7500000   0.0000000   0.7500000), wk =   0.0468750
        k(   21) = (   0.0000000  -1.0000000   0.0000000), wk =   0.0117188
        k(   22) = (  -0.2500000   0.5000000   0.0000000), wk =   0.0937500
        k(   23) = (   0.6250000  -0.3750000   0.8750000), wk =   0.1875000
        k(   24) = (   0.5000000  -0.2500000   0.7500000), wk =   0.0937500
        k(   25) = (   0.7500000  -0.2500000   1.0000000), wk =   0.0937500
        k(   26) = (   0.6250000  -0.1250000   0.8750000), wk =   0.1875000
        k(   27) = (   0.5000000   0.0000000   0.7500000), wk =   0.0937500
        k(   28) = (  -0.2500000  -1.0000000   0.0000000), wk =   0.0468750
        k(   29) = (  -0.5000000  -1.0000000   0.0000000), wk =   0.0234375

     Dense  grid:     9721 G-vectors     FFT dimensions: (  30,  30,  30)

     Estimated max dynamical RAM per process >      11.48 MB

     Initial potential from superposition of free atoms

     starting charge       6.0000, renormalised to       8.0000
     Starting wfcs are   18 randomized atomic wfcs

     total cpu time spent up to now is        0.4 secs

     Self-consistent Calculation

     iteration #  1     ecut=    40.00 Ry     beta= 0.70
     Davidson diagonalization with overlap
     ethr =  1.00E-02,  avg # of iterations =  2.0

     total cpu time spent up to now is        0.7 secs

     total energy              =     -22.61244802 Ry
     estimated scf accuracy    <       0.71934657 Ry

     iteration #  2     ecut=    40.00 Ry     beta= 0.70
     Davidson diagonalization with overlap
     ethr =  8.99E-03,  avg # of iterations =  2.0

     total cpu time spent up to now is        0.9 secs

     total energy              =     -22.84492351 Ry
     estimated scf accuracy    <       0.16153513 Ry

     iteration #  3     ecut=    40.00 Ry     beta= 0.70
     Davidson diagonalization with overlap
     ethr =  2.02E-03,  avg # of iterations =  2.0

     negative rho (up, down):  1.283E-07 0.000E+00

     total cpu time spent up to now is        1.1 secs

     total energy              =     -22.86233428 Ry
     estimated scf accuracy    <       0.00498470 Ry

     iteration #  4     ecut=    40.00 Ry     beta= 0.70
     Davidson diagonalization with overlap
     ethr =  6.23E-05,  avg # of iterations =  2.2

     total cpu time spent up to now is        1.3 secs

     total energy              =     -22.86437404 Ry
     estimated scf accuracy    <       0.00387351 Ry

     iteration #  5     ecut=    40.00 Ry     beta= 0.70
     Davidson diagonalization with overlap
     ethr =  4.84E-05,  avg # of iterations =  1.3

     total cpu time spent up to now is        1.5 secs

     total energy              =     -22.86450453 Ry
     estimated scf accuracy    <       0.00039255 Ry

     iteration #  6     ecut=    40.00 Ry     beta= 0.70
     Davidson diagonalization with overlap
     ethr =  4.91E-06,  avg # of iterations =  2.6

     total cpu time spent up to now is        1.8 secs

     total energy              =     -22.86464389 Ry
     estimated scf accuracy    <       0.00000078 Ry

     iteration #  7     ecut=    40.00 Ry     beta= 0.70
     Davidson diagonalization with overlap
     ethr =  9.74E-09,  avg # of iterations =  5.9

     total cpu time spent up to now is        2.1 secs

     total energy              =     -22.86464690 Ry
     estimated scf accuracy    <       0.00000218 Ry

     iteration #  8     ecut=    40.00 Ry     beta= 0.70
     Davidson diagonalization with overlap
     ethr =  9.74E-09,  avg # of iterations =  3.0

     total cpu time spent up to now is        2.4 secs

     total energy              =     -22.86464750 Ry
     estimated scf accuracy    <       0.00000036 Ry

     iteration #  9     ecut=    40.00 Ry     beta= 0.70
     Davidson diagonalization with overlap
     ethr =  4.45E-09,  avg # of iterations =  2.0

     total cpu time spent up to now is        2.6 secs

     End of self-consistent calculation

          k = 0.0000 0.0000 0.0000 (  1243 PWs)   bands (ev):

   -10.2683   1.8700   1.8700   1.8700

          k =-0.1250 0.1250-0.1250 (  1230 PWs)   bands (ev):

   -10.1560   0.7883   1.7614   1.7614

          k =-0.2500 0.2500-0.2500 (  1227 PWs)   bands (ev):

    -9.8535  -0.8413   1.5252   1.5252

          k =-0.3750 0.3750-0.3750 (  1215 PWs)   bands (ev):

    -9.4897  -2.1262   1.3174   1.3174

          k = 0.5000-0.5000 0.5000 (  1194 PWs)   bands (ev):

    -9.3129  -2.6279   1.2388   1.2388

          k = 0.0000 0.2500 0.0000 (  1235 PWs)   bands (ev):

   -10.1186   0.7806   1.5502   1.5502

          k =-0.1250 0.3750-0.1250 (  1227 PWs)   bands (ev):

    -9.8786  -0.4392   1.2595   1.3003

          k =-0.2500 0.5000-0.2500 (  1230 PWs)   bands (ev):

    -9.5276  -1.7266   0.9474   1.0632

          k = 0.6250-0.3750 0.6250 (  1211 PWs)   bands (ev):

    -9.2719  -2.4588   0.6476   1.0501

          k = 0.5000-0.2500 0.5000 (  1220 PWs)   bands (ev):

    -9.3316  -2.2965   0.5434   1.2190

          k = 0.3750-0.1250 0.3750 (  1224 PWs)   bands (ev):

    -9.6492  -1.3356   0.7077   1.4958

          k = 0.2500 0.0000 0.2500 (  1229 PWs)   bands (ev):

    -9.9794  -0.0819   1.1862   1.7335

          k = 0.0000 0.5000 0.0000 (  1243 PWs)   bands (ev):

    -9.7156  -0.7306   0.9033   0.9033

          k =-0.1250 0.6250-0.1250 (  1227 PWs)   bands (ev):

    -9.4262  -1.5350   0.4454   0.6666

          k = 0.7500-0.2500 0.7500 (  1217 PWs)   bands (ev):

    -9.1651  -2.1348  -0.1614   0.6493

          k = 0.6250-0.1250 0.6250 (  1211 PWs)   bands (ev):

    -9.1292  -2.1788  -0.5120   0.8563

          k = 0.5000 0.0000 0.5000 (  1211 PWs)   bands (ev):

    -9.3496  -1.7806  -0.2538   1.2005

          k = 0.0000 0.7500 0.0000 (  1230 PWs)   bands (ev):

    -9.2294  -1.9024   0.3695   0.3695

          k = 0.8750-0.1250 0.8750 (  1217 PWs)   bands (ev):

    -9.0457  -2.2050  -0.1246   0.3025

          k = 0.7500 0.0000 0.7500 (  1214 PWs)   bands (ev):

    -9.0024  -2.1449  -0.7569   0.4888

          k = 0.0000-1.0000 0.0000 (  1234 PWs)   bands (ev):

    -8.9920  -2.3699   0.1705   0.1705

          k =-0.2500 0.5000 0.0000 (  1222 PWs)   bands (ev):

    -9.6106  -1.1768   0.4856   1.1754

          k = 0.6250-0.3750 0.8750 (  1221 PWs)   bands (ev):

    -9.2970  -1.9580  -0.0031   0.8895

          k = 0.5000-0.2500 0.7500 (  1208 PWs)   bands (ev):

    -9.1488  -2.3068  -0.1385   0.7457

          k = 0.7500-0.2500 1.0000 (  1210 PWs)   bands (ev):

    -9.1809  -1.9496  -0.0451   0.3651

          k = 0.6250-0.1250 0.8750 (  1210 PWs)   bands (ev):

    -9.0257  -2.1106  -0.5732   0.2388

          k = 0.5000 0.0000 0.7500 (  1207 PWs)   bands (ev):

    -9.0792  -2.0365  -0.6896   0.4953

          k =-0.2500-1.0000 0.0000 (  1218 PWs)   bands (ev):

    -8.9788  -2.2339  -0.1853  -0.0456

          k =-0.5000-1.0000 0.0000 (  1216 PWs)   bands (ev):

    -8.9658  -2.0538  -0.5586  -0.2363

     highest occupied level (ev):     1.8700

!    total energy              =     -22.86464756 Ry
     estimated scf accuracy    <          2.2E-10 Ry

     The total energy is the sum of the following terms:
     one-electron contribution =      -1.71300107 Ry
     hartree contribution      =       3.63871090 Ry
     xc contribution           =      -5.39360993 Ry
     ewald contribution        =     -19.39674747 Ry

     convergence has been achieved in   9 iterations

     Writing all to output data dir ./SCRATCH/zns.save/

     init_run     :      0.38s CPU      0.42s WALL (       1 calls)
     electrons    :      1.97s CPU      2.15s WALL (       1 calls)

     Called by init_run:
     wfcinit      :      0.30s CPU      0.31s WALL (       1 calls)
     potinit      :      0.00s CPU      0.01s WALL (       1 calls)
     hinit0       :      0.08s CPU      0.10s WALL (       1 calls)

     Called by electrons:
     c_bands      :      1.69s CPU      1.83s WALL (       9 calls)
     sum_band     :      0.28s CPU      0.29s WALL (       9 calls)
     v_of_rho     :      0.00s CPU      0.01s WALL (      10 calls)
     mix_rho      :      0.00s CPU      0.01s WALL (       9 calls)

     Called by c_bands:
     init_us_2    :      0.08s CPU      0.13s WALL (     551 calls)
     init_us_2:cp :      0.08s CPU      0.13s WALL (     551 calls)
     cegterg      :      1.62s CPU      1.65s WALL (     261 calls)

     Called by *egterg:
     cdiaghg      :      0.00s CPU      0.02s WALL (     928 calls)
     h_psi        :      1.66s CPU      1.73s WALL (     957 calls)
     g_psi        :      0.02s CPU      0.01s WALL (     667 calls)

     Called by h_psi:
     h_psi:calbec :      0.11s CPU      0.10s WALL (     957 calls)
     vloc_psi     :      1.44s CPU      1.55s WALL (     957 calls)
     add_vuspsi   :      0.11s CPU      0.07s WALL (     957 calls)

     General routines
     calbec       :      0.11s CPU      0.09s WALL (     957 calls)
     fft          :      0.00s CPU      0.01s WALL (      29 calls)
     ffts         :      0.02s CPU      0.00s WALL (       9 calls)
     fftw         :      1.55s CPU      1.58s WALL (    8576 calls)


     PWSCF        :      2.38s CPU      2.62s WALL


   This run was terminated on:  11:31:51  26May2024            

=------------------------------------------------------------------------------=
   JOB DONE.
=------------------------------------------------------------------------------=
