
     Program PWSCF v.7.2 starts on 26May2024 at 11:32:16 

     This program is part of the open-source Quantum ESPRESSO suite
     for quantum simulation of materials; please cite
         "P. Giannozzi et al., J. Phys.:Condens. Matter 21 395502 (2009);
         "P. Giannozzi et al., J. Phys.:Condens. Matter 29 465901 (2017);
         "P. Giannozzi et al., J. Chem. Phys. 152 154105 (2020);
          URL http://www.quantum-espresso.org", 
     in publications or presentations arising from this work. More details at
     http://www.quantum-espresso.org/quote

     Serial version
     9742 MiB available memory on the printing compute node when the environment starts

     Waiting for input...
     Reading input from standard input

     Current dimensions of program PWSCF are:
     Max number of different atomic species (ntypx) = 10
     Max number of k-points (npk) =  40000
     Max angular momentum in pseudopotentials (lmaxx) =  4


     G-vector sticks info
     --------------------
     sticks:   dense  smooth     PW     G-vecs:    dense   smooth      PW
     Sum        1507    1507    433                38517    38517    5985

     Using Slab Decomposition



     bravais-lattice index     =            2
     lattice parameter (alat)  =      10.4472  a.u.
     unit-cell volume          =     285.0591 (a.u.)^3
     number of atoms/cell      =            2
     number of atomic types    =            2
     number of electrons       =         8.00
     number of Kohn-Sham states=            4
     kinetic-energy cutoff     =     100.0000  Ry
     charge density cutoff     =     400.0000  Ry
     scf convergence threshold =      1.0E-08
     mixing beta               =       0.7000
     number of iterations used =            8  plain     mixing
     Exchange-correlation= SLA-PZ-NOGX-NOGC
                           (   1   1   0   0   0   0   0)

     celldm(1)=  10.447161  celldm(2)=   0.000000  celldm(3)=   0.000000
     celldm(4)=   0.000000  celldm(5)=   0.000000  celldm(6)=   0.000000

     crystal axes: (cart. coord. in units of alat)
               a(1) = (  -0.500000   0.000000   0.500000 )  
               a(2) = (   0.000000   0.500000   0.500000 )  
               a(3) = (  -0.500000   0.500000   0.000000 )  

     reciprocal axes: (cart. coord. in units 2 pi/alat)
               b(1) = ( -1.000000 -1.000000  1.000000 )  
               b(2) = (  1.000000  1.000000  1.000000 )  
               b(3) = ( -1.000000  1.000000 -1.000000 )  


     PseudoPot. # 1 for Zn read from file:
     /home/paolo/project_labqsm/pseudopotentials/Zn.pz-hgh.UPF
     MD5 check sum: c1979979258da2eeca1fc2dcb474678d
     Pseudo is Norm-conserving, Zval =  2.0
     Generated in analytical, separable form
     Using radial grid of 1201 points,  6 beta functions with: 
                l(1) =   0
                l(2) =   0
                l(3) =   0
                l(4) =   1
                l(5) =   1
                l(6) =   2

     PseudoPot. # 2 for S  read from file:
     /home/paolo/project_labqsm/pseudopotentials/S.pz-hgh.UPF
     MD5 check sum: a0679cb0a74c01c481c24d5fd31ffa9b
     Pseudo is Norm-conserving, Zval =  6.0
     Generated in analytical, separable form
     Using radial grid of 1151 points,  3 beta functions with: 
                l(1) =   0
                l(2) =   0
                l(3) =   1

     atomic species   valence    mass     pseudopotential
        Zn             2.00    65.38000     Zn( 1.00)
        S              6.00    32.06000     S ( 1.00)

     24 Sym. Ops. (no inversion) found



   Cartesian axes

     site n.     atom                  positions (alat units)
         1           Zn  tau(   1) = (   0.0000000   0.0000000   0.0000000  )
         2           S   tau(   2) = (   0.2500000   0.2500000   0.2500000  )

     number of k points=    29
                       cart. coord. in units 2pi/alat
        k(    1) = (   0.0000000   0.0000000   0.0000000), wk =   0.0039062
        k(    2) = (  -0.1250000   0.1250000  -0.1250000), wk =   0.0312500
        k(    3) = (  -0.2500000   0.2500000  -0.2500000), wk =   0.0312500
        k(    4) = (  -0.3750000   0.3750000  -0.3750000), wk =   0.0312500
        k(    5) = (   0.5000000  -0.5000000   0.5000000), wk =   0.0156250
        k(    6) = (   0.0000000   0.2500000   0.0000000), wk =   0.0234375
        k(    7) = (  -0.1250000   0.3750000  -0.1250000), wk =   0.0937500
        k(    8) = (  -0.2500000   0.5000000  -0.2500000), wk =   0.0937500
        k(    9) = (   0.6250000  -0.3750000   0.6250000), wk =   0.0937500
        k(   10) = (   0.5000000  -0.2500000   0.5000000), wk =   0.0937500
        k(   11) = (   0.3750000  -0.1250000   0.3750000), wk =   0.0937500
        k(   12) = (   0.2500000   0.0000000   0.2500000), wk =   0.0468750
        k(   13) = (   0.0000000   0.5000000   0.0000000), wk =   0.0234375
        k(   14) = (  -0.1250000   0.6250000  -0.1250000), wk =   0.0937500
        k(   15) = (   0.7500000  -0.2500000   0.7500000), wk =   0.0937500
        k(   16) = (   0.6250000  -0.1250000   0.6250000), wk =   0.0937500
        k(   17) = (   0.5000000   0.0000000   0.5000000), wk =   0.0468750
        k(   18) = (   0.0000000   0.7500000   0.0000000), wk =   0.0234375
        k(   19) = (   0.8750000  -0.1250000   0.8750000), wk =   0.0937500
        k(   20) = (   0.7500000   0.0000000   0.7500000), wk =   0.0468750
        k(   21) = (   0.0000000  -1.0000000   0.0000000), wk =   0.0117188
        k(   22) = (  -0.2500000   0.5000000   0.0000000), wk =   0.0937500
        k(   23) = (   0.6250000  -0.3750000   0.8750000), wk =   0.1875000
        k(   24) = (   0.5000000  -0.2500000   0.7500000), wk =   0.0937500
        k(   25) = (   0.7500000  -0.2500000   1.0000000), wk =   0.0937500
        k(   26) = (   0.6250000  -0.1250000   0.8750000), wk =   0.1875000
        k(   27) = (   0.5000000   0.0000000   0.7500000), wk =   0.0937500
        k(   28) = (  -0.2500000  -1.0000000   0.0000000), wk =   0.0468750
        k(   29) = (  -0.5000000  -1.0000000   0.0000000), wk =   0.0234375

     Dense  grid:    38517 G-vectors     FFT dimensions: (  48,  48,  48)

     Estimated max dynamical RAM per process >      40.86 MB

     Initial potential from superposition of free atoms

     starting charge       6.0000, renormalised to       8.0000
     Starting wfcs are   18 randomized atomic wfcs

     total cpu time spent up to now is        1.6 secs

     Self-consistent Calculation

     iteration #  1     ecut=   100.00 Ry     beta= 0.70
     Davidson diagonalization with overlap
     ethr =  1.00E-02,  avg # of iterations =  2.0

     total cpu time spent up to now is        2.5 secs

     total energy              =     -22.61986739 Ry
     estimated scf accuracy    <       0.71595525 Ry

     iteration #  2     ecut=   100.00 Ry     beta= 0.70
     Davidson diagonalization with overlap
     ethr =  8.95E-03,  avg # of iterations =  2.0

     total cpu time spent up to now is        3.4 secs

     total energy              =     -22.85173453 Ry
     estimated scf accuracy    <       0.16137176 Ry

     iteration #  3     ecut=   100.00 Ry     beta= 0.70
     Davidson diagonalization with overlap
     ethr =  2.02E-03,  avg # of iterations =  2.0

     negative rho (up, down):  3.798E-08 0.000E+00

     total cpu time spent up to now is        4.3 secs

     total energy              =     -22.86914555 Ry
     estimated scf accuracy    <       0.00496280 Ry

     iteration #  4     ecut=   100.00 Ry     beta= 0.70
     Davidson diagonalization with overlap
     ethr =  6.20E-05,  avg # of iterations =  2.3

     total cpu time spent up to now is        5.3 secs

     total energy              =     -22.87117187 Ry
     estimated scf accuracy    <       0.00382597 Ry

     iteration #  5     ecut=   100.00 Ry     beta= 0.70
     Davidson diagonalization with overlap
     ethr =  4.78E-05,  avg # of iterations =  1.3

     total cpu time spent up to now is        6.1 secs

     total energy              =     -22.87129840 Ry
     estimated scf accuracy    <       0.00038650 Ry

     iteration #  6     ecut=   100.00 Ry     beta= 0.70
     Davidson diagonalization with overlap
     ethr =  4.83E-06,  avg # of iterations =  2.5

     total cpu time spent up to now is        7.1 secs

     total energy              =     -22.87143675 Ry
     estimated scf accuracy    <       0.00000111 Ry

     iteration #  7     ecut=   100.00 Ry     beta= 0.70
     Davidson diagonalization with overlap
     ethr =  1.38E-08,  avg # of iterations =  5.6

     total cpu time spent up to now is        8.6 secs

     total energy              =     -22.87144029 Ry
     estimated scf accuracy    <       0.00000177 Ry

     iteration #  8     ecut=   100.00 Ry     beta= 0.70
     Davidson diagonalization with overlap
     ethr =  1.38E-08,  avg # of iterations =  2.6

     total cpu time spent up to now is        9.7 secs

     total energy              =     -22.87144080 Ry
     estimated scf accuracy    <       0.00000033 Ry

     iteration #  9     ecut=   100.00 Ry     beta= 0.70
     Davidson diagonalization with overlap
     ethr =  4.13E-09,  avg # of iterations =  2.0

     total cpu time spent up to now is       10.6 secs

     End of self-consistent calculation

          k = 0.0000 0.0000 0.0000 (  4909 PWs)   bands (ev):

   -10.2622   1.8603   1.8603   1.8603

          k =-0.1250 0.1250-0.1250 (  4816 PWs)   bands (ev):

   -10.1499   0.7804   1.7516   1.7516

          k =-0.2500 0.2500-0.2500 (  4813 PWs)   bands (ev):

    -9.8473  -0.8470   1.5153   1.5153

          k =-0.3750 0.3750-0.3750 (  4810 PWs)   bands (ev):

    -9.4832  -2.1319   1.3075   1.3075

          k = 0.5000-0.5000 0.5000 (  4802 PWs)   bands (ev):

    -9.3064  -2.6338   1.2282   1.2282

          k = 0.0000 0.2500 0.0000 (  4825 PWs)   bands (ev):

   -10.1125   0.7734   1.5408   1.5408

          k =-0.1250 0.3750-0.1250 (  4820 PWs)   bands (ev):

    -9.8724  -0.4452   1.2501   1.2911

          k =-0.2500 0.5000-0.2500 (  4825 PWs)   bands (ev):

    -9.5210  -1.7319   0.9387   1.0544

          k = 0.6250-0.3750 0.6250 (  4812 PWs)   bands (ev):

    -9.2651  -2.4647   0.6391   1.0406

          k = 0.5000-0.2500 0.5000 (  4811 PWs)   bands (ev):

    -9.3248  -2.3020   0.5353   1.2092

          k = 0.3750-0.1250 0.3750 (  4805 PWs)   bands (ev):

    -9.6428  -1.3410   0.6992   1.4858

          k = 0.2500 0.0000 0.2500 (  4806 PWs)   bands (ev):

    -9.9733  -0.0881   1.1773   1.7231

          k = 0.0000 0.5000 0.0000 (  4833 PWs)   bands (ev):

    -9.7091  -0.7357   0.8950   0.8950

          k =-0.1250 0.6250-0.1250 (  4801 PWs)   bands (ev):

    -9.4195  -1.5402   0.4373   0.6578

          k = 0.7500-0.2500 0.7500 (  4816 PWs)   bands (ev):

    -9.1581  -2.1405  -0.1689   0.6404

          k = 0.6250-0.1250 0.6250 (  4812 PWs)   bands (ev):

    -9.1222  -2.1848  -0.5193   0.8470

          k = 0.5000 0.0000 0.5000 (  4788 PWs)   bands (ev):

    -9.3429  -1.7863  -0.2615   1.1905

          k = 0.0000 0.7500 0.0000 (  4812 PWs)   bands (ev):

    -9.2224  -1.9078   0.3614   0.3614

          k = 0.8750-0.1250 0.8750 (  4817 PWs)   bands (ev):

    -9.0385  -2.2110  -0.1323   0.2944

          k = 0.7500 0.0000 0.7500 (  4830 PWs)   bands (ev):

    -8.9952  -2.1509  -0.7642   0.4803

          k = 0.0000-1.0000 0.0000 (  4800 PWs)   bands (ev):

    -8.9846  -2.3755   0.1629   0.1629

          k =-0.2500 0.5000 0.0000 (  4810 PWs)   bands (ev):

    -9.6042  -1.1823   0.4773   1.1657

          k = 0.6250-0.3750 0.8750 (  4807 PWs)   bands (ev):

    -9.2902  -1.9635  -0.0108   0.8806

          k = 0.5000-0.2500 0.7500 (  4794 PWs)   bands (ev):

    -9.1418  -2.3130  -0.1461   0.7366

          k = 0.7500-0.2500 1.0000 (  4822 PWs)   bands (ev):

    -9.1741  -1.9553  -0.0533   0.3564

          k = 0.6250-0.1250 0.8750 (  4814 PWs)   bands (ev):

    -9.0186  -2.1166  -0.5806   0.2303

          k = 0.5000 0.0000 0.7500 (  4817 PWs)   bands (ev):

    -9.0723  -2.0425  -0.6970   0.4864

          k =-0.2500-1.0000 0.0000 (  4820 PWs)   bands (ev):

    -8.9716  -2.2398  -0.1932  -0.0532

          k =-0.5000-1.0000 0.0000 (  4788 PWs)   bands (ev):

    -8.9585  -2.0596  -0.5659  -0.2439

     highest occupied level (ev):     1.8603

!    total energy              =     -22.87144084 Ry
     estimated scf accuracy    <          1.7E-09 Ry

     The total energy is the sum of the following terms:
     one-electron contribution =      -1.72255549 Ry
     hartree contribution      =       3.64376920 Ry
     xc contribution           =      -5.39590712 Ry
     ewald contribution        =     -19.39674743 Ry

     convergence has been achieved in   9 iterations

     Writing all to output data dir ./SCRATCH/zns.save/

     init_run     :      1.53s CPU      1.55s WALL (       1 calls)
     electrons    :      8.78s CPU      9.04s WALL (       1 calls)

     Called by init_run:
     wfcinit      :      1.33s CPU      1.33s WALL (       1 calls)
     potinit      :      0.02s CPU      0.02s WALL (       1 calls)
     hinit0       :      0.16s CPU      0.16s WALL (       1 calls)

     Called by electrons:
     c_bands      :      7.48s CPU      7.68s WALL (       9 calls)
     sum_band     :      1.19s CPU      1.25s WALL (       9 calls)
     v_of_rho     :      0.08s CPU      0.06s WALL (      10 calls)
     mix_rho      :      0.02s CPU      0.05s WALL (       9 calls)

     Called by c_bands:
     init_us_2    :      0.50s CPU      0.50s WALL (     551 calls)
     init_us_2:cp :      0.50s CPU      0.50s WALL (     551 calls)
     cegterg      :      6.94s CPU      7.07s WALL (     261 calls)

     Called by *egterg:
     cdiaghg      :      0.00s CPU      0.02s WALL (     909 calls)
     h_psi        :      7.30s CPU      7.61s WALL (     938 calls)
     g_psi        :      0.03s CPU      0.03s WALL (     648 calls)

     Called by h_psi:
     h_psi:calbec :      0.33s CPU      0.40s WALL (     938 calls)
     vloc_psi     :      6.80s CPU      6.92s WALL (     938 calls)
     add_vuspsi   :      0.17s CPU      0.27s WALL (     938 calls)

     General routines
     calbec       :      0.33s CPU      0.39s WALL (     938 calls)
     fft          :      0.06s CPU      0.04s WALL (      29 calls)
     ffts         :      0.02s CPU      0.01s WALL (       9 calls)
     fftw         :      6.89s CPU      7.15s WALL (    8466 calls)


     PWSCF        :     10.33s CPU     10.64s WALL


   This run was terminated on:  11:32:26  26May2024            

=------------------------------------------------------------------------------=
   JOB DONE.
=------------------------------------------------------------------------------=
