
     Program PWSCF v.7.2 starts on  8Jun2024 at 10:31:50 

     This program is part of the open-source Quantum ESPRESSO suite
     for quantum simulation of materials; please cite
         "P. Giannozzi et al., J. Phys.:Condens. Matter 21 395502 (2009);
         "P. Giannozzi et al., J. Phys.:Condens. Matter 29 465901 (2017);
         "P. Giannozzi et al., J. Chem. Phys. 152 154105 (2020);
          URL http://www.quantum-espresso.org", 
     in publications or presentations arising from this work. More details at
     http://www.quantum-espresso.org/quote

     Serial version
     9341 MiB available memory on the printing compute node when the environment starts

     Waiting for input...
     Reading input from standard input

     Current dimensions of program PWSCF are:
     Max number of different atomic species (ntypx) = 10
     Max number of k-points (npk) =  40000
     Max angular momentum in pseudopotentials (lmaxx) =  4


     G-vector sticks info
     --------------------
     sticks:   dense  smooth     PW     G-vecs:    dense   smooth      PW
     Sum        1201    1201    361                27581    27581    4477

     Using Slab Decomposition



     bravais-lattice index     =            2
     lattice parameter (alat)  =      10.4472  a.u.
     unit-cell volume          =     285.0591 (a.u.)^3
     number of atoms/cell      =            2
     number of atomic types    =            2
     number of electrons       =        26.00
     number of Kohn-Sham states=           13
     kinetic-energy cutoff     =      80.0000  Ry
     charge density cutoff     =     320.0000  Ry
     scf convergence threshold =      1.0E-08
     mixing beta               =       0.7000
     number of iterations used =            8  plain     mixing
     Exchange-correlation= PBE
                           (   1   4   3   4   0   0   0)

     celldm(1)=  10.447161  celldm(2)=   0.000000  celldm(3)=   0.000000
     celldm(4)=   0.000000  celldm(5)=   0.000000  celldm(6)=   0.000000

     crystal axes: (cart. coord. in units of alat)
               a(1) = (  -0.500000   0.000000   0.500000 )  
               a(2) = (   0.000000   0.500000   0.500000 )  
               a(3) = (  -0.500000   0.500000   0.000000 )  

     reciprocal axes: (cart. coord. in units 2 pi/alat)
               b(1) = ( -1.000000 -1.000000  1.000000 )  
               b(2) = (  1.000000  1.000000  1.000000 )  
               b(3) = ( -1.000000  1.000000 -1.000000 )  


     PseudoPot. # 1 for Zn read from file:
     /home/paolo/project_labqsm/pseudopotentials/Zn_ONCV_PBE-1.2.upf
     MD5 check sum: 732f41c0cd6489a4b50a33b4ec99a2d3
     Pseudo is Norm-conserving, Zval = 20.0
     Generated using ONCVPSP code by D. R. Hamann
     Using radial grid of  602 points,  6 beta functions with: 
                l(1) =   0
                l(2) =   0
                l(3) =   1
                l(4) =   1
                l(5) =   2
                l(6) =   2

     PseudoPot. # 2 for S  read from file:
     /home/paolo/project_labqsm/pseudopotentials/S_ONCV_PBE-1.2.upf
     MD5 check sum: f9d020296ee6110346977bfd66d424f6
     Pseudo is Norm-conserving, Zval =  6.0
     Generated using ONCVPSP code by D. R. Hamann
     Using radial grid of  602 points,  4 beta functions with: 
                l(1) =   0
                l(2) =   0
                l(3) =   1
                l(4) =   1

     atomic species   valence    mass     pseudopotential
        Zn            20.00    65.38000     Zn( 1.00)
        S              6.00    32.06000     S ( 1.00)

     24 Sym. Ops. (no inversion) found



   Cartesian axes

     site n.     atom                  positions (alat units)
         1           Zn  tau(   1) = (   0.0000000   0.0000000   0.0000000  )
         2           S   tau(   2) = (   0.2500000   0.2500000   0.2500000  )

     number of k points=    29
                       cart. coord. in units 2pi/alat
        k(    1) = (   0.0000000   0.0000000   0.0000000), wk =   0.0039062
        k(    2) = (  -0.1250000   0.1250000  -0.1250000), wk =   0.0312500
        k(    3) = (  -0.2500000   0.2500000  -0.2500000), wk =   0.0312500
        k(    4) = (  -0.3750000   0.3750000  -0.3750000), wk =   0.0312500
        k(    5) = (   0.5000000  -0.5000000   0.5000000), wk =   0.0156250
        k(    6) = (   0.0000000   0.2500000   0.0000000), wk =   0.0234375
        k(    7) = (  -0.1250000   0.3750000  -0.1250000), wk =   0.0937500
        k(    8) = (  -0.2500000   0.5000000  -0.2500000), wk =   0.0937500
        k(    9) = (   0.6250000  -0.3750000   0.6250000), wk =   0.0937500
        k(   10) = (   0.5000000  -0.2500000   0.5000000), wk =   0.0937500
        k(   11) = (   0.3750000  -0.1250000   0.3750000), wk =   0.0937500
        k(   12) = (   0.2500000   0.0000000   0.2500000), wk =   0.0468750
        k(   13) = (   0.0000000   0.5000000   0.0000000), wk =   0.0234375
        k(   14) = (  -0.1250000   0.6250000  -0.1250000), wk =   0.0937500
        k(   15) = (   0.7500000  -0.2500000   0.7500000), wk =   0.0937500
        k(   16) = (   0.6250000  -0.1250000   0.6250000), wk =   0.0937500
        k(   17) = (   0.5000000   0.0000000   0.5000000), wk =   0.0468750
        k(   18) = (   0.0000000   0.7500000   0.0000000), wk =   0.0234375
        k(   19) = (   0.8750000  -0.1250000   0.8750000), wk =   0.0937500
        k(   20) = (   0.7500000   0.0000000   0.7500000), wk =   0.0468750
        k(   21) = (   0.0000000  -1.0000000   0.0000000), wk =   0.0117188
        k(   22) = (  -0.2500000   0.5000000   0.0000000), wk =   0.0937500
        k(   23) = (   0.6250000  -0.3750000   0.8750000), wk =   0.1875000
        k(   24) = (   0.5000000  -0.2500000   0.7500000), wk =   0.0937500
        k(   25) = (   0.7500000  -0.2500000   1.0000000), wk =   0.0937500
        k(   26) = (   0.6250000  -0.1250000   0.8750000), wk =   0.1875000
        k(   27) = (   0.5000000   0.0000000   0.7500000), wk =   0.0937500
        k(   28) = (  -0.2500000  -1.0000000   0.0000000), wk =   0.0468750
        k(   29) = (  -0.5000000  -1.0000000   0.0000000), wk =   0.0234375

     Dense  grid:    27581 G-vectors     FFT dimensions: (  45,  45,  45)

     Estimated max dynamical RAM per process >      46.07 MB

     Initial potential from superposition of free atoms

     starting charge      25.9670, renormalised to      26.0000
     Starting wfcs are random

     total cpu time spent up to now is        0.9 secs

     Self-consistent Calculation

     iteration #  1     ecut=    80.00 Ry     beta= 0.70
     Davidson diagonalization with overlap
     ethr =  1.00E-02,  avg # of iterations = 13.2

     total cpu time spent up to now is        8.9 secs

     total energy              =    -420.53242863 Ry
     estimated scf accuracy    <       0.26099683 Ry

     iteration #  2     ecut=    80.00 Ry     beta= 0.70
     Davidson diagonalization with overlap
     ethr =  1.00E-03,  avg # of iterations =  3.5

     total cpu time spent up to now is       11.8 secs

     total energy              =    -420.86743430 Ry
     estimated scf accuracy    <       0.32432521 Ry

     iteration #  3     ecut=    80.00 Ry     beta= 0.70
     Davidson diagonalization with overlap
     ethr =  1.00E-03,  avg # of iterations =  2.0

     total cpu time spent up to now is       14.2 secs

     total energy              =    -420.89356432 Ry
     estimated scf accuracy    <       0.02222069 Ry

     iteration #  4     ecut=    80.00 Ry     beta= 0.70
     Davidson diagonalization with overlap
     ethr =  8.55E-05,  avg # of iterations =  2.4

     total cpu time spent up to now is       16.7 secs

     total energy              =    -420.90215917 Ry
     estimated scf accuracy    <       0.00149116 Ry

     iteration #  5     ecut=    80.00 Ry     beta= 0.70
     Davidson diagonalization with overlap
     ethr =  5.74E-06,  avg # of iterations =  2.0

     total cpu time spent up to now is       19.2 secs

     total energy              =    -420.90237603 Ry
     estimated scf accuracy    <       0.00010110 Ry

     iteration #  6     ecut=    80.00 Ry     beta= 0.70
     Davidson diagonalization with overlap
     ethr =  3.89E-07,  avg # of iterations =  3.0

     total cpu time spent up to now is       22.0 secs

     total energy              =    -420.90239305 Ry
     estimated scf accuracy    <       0.00005607 Ry

     iteration #  7     ecut=    80.00 Ry     beta= 0.70
     Davidson diagonalization with overlap
     ethr =  2.16E-07,  avg # of iterations =  3.0

     total cpu time spent up to now is       24.9 secs

     total energy              =    -420.90241400 Ry
     estimated scf accuracy    <       0.00003959 Ry

     iteration #  8     ecut=    80.00 Ry     beta= 0.70
     Davidson diagonalization with overlap
     ethr =  1.52E-07,  avg # of iterations =  2.0

     total cpu time spent up to now is       27.1 secs

     total energy              =    -420.90241785 Ry
     estimated scf accuracy    <       0.00000224 Ry

     iteration #  9     ecut=    80.00 Ry     beta= 0.70
     Davidson diagonalization with overlap
     ethr =  8.63E-09,  avg # of iterations =  2.4

     total cpu time spent up to now is       29.6 secs

     total energy              =    -420.90241870 Ry
     estimated scf accuracy    <       0.00000004 Ry

     iteration # 10     ecut=    80.00 Ry     beta= 0.70
     Davidson diagonalization with overlap
     ethr =  1.62E-10,  avg # of iterations =  3.2

     total cpu time spent up to now is       32.4 secs

     total energy              =    -420.90241872 Ry
     estimated scf accuracy    <       0.00000005 Ry

     iteration # 11     ecut=    80.00 Ry     beta= 0.70
     Davidson diagonalization with overlap
     ethr =  1.62E-10,  avg # of iterations =  1.0

     total cpu time spent up to now is       34.3 secs

     total energy              =    -420.90241870 Ry
     estimated scf accuracy    <       0.00000003 Ry

     iteration # 12     ecut=    80.00 Ry     beta= 0.70
     Davidson diagonalization with overlap
     ethr =  1.26E-10,  avg # of iterations =  2.0

     total cpu time spent up to now is       36.7 secs

     End of self-consistent calculation

          k = 0.0000 0.0000 0.0000 (  3479 PWs)   bands (ev):

  -118.2140 -72.3773 -72.3773 -72.3773  -6.1411   0.4456   0.4456   0.4456
     0.8623   0.8623   6.5434   6.5434   6.5434

          k =-0.1250 0.1250-0.1250 (  3461 PWs)   bands (ev):

  -118.2140 -72.3773 -72.3773 -72.3773  -6.0380   0.4523   0.4636   0.4636
     0.8611   0.8611   5.4695   6.4138   6.4138

          k =-0.2500 0.2500-0.2500 (  3437 PWs)   bands (ev):

  -118.2140 -72.3773 -72.3773 -72.3773  -5.7703   0.5030   0.5030   0.5108
     0.8640   0.8640   3.8664   6.1289   6.1289

          k =-0.3750 0.3750-0.3750 (  3446 PWs)   bands (ev):

  -118.2140 -72.3774 -72.3773 -72.3773  -5.4703   0.5343   0.5343   0.7231
     0.8780   0.8780   2.4644   5.8732   5.8732

          k = 0.5000-0.5000 0.5000 (  3444 PWs)   bands (ev):

  -118.2140 -72.3774 -72.3773 -72.3773  -5.3342   0.5443   0.5443   0.8878
     0.8878   1.0428   1.6930   5.7736   5.7736

          k = 0.0000 0.2500 0.0000 (  3459 PWs)   bands (ev):

  -118.2140 -72.3773 -72.3773 -72.3773  -6.0035   0.4351   0.4795   0.4795
     0.8492   0.8714   5.4846   6.1848   6.1848

          k =-0.1250 0.3750-0.1250 (  3457 PWs)   bands (ev):

  -118.2140 -72.3773 -72.3773 -72.3773  -5.7901   0.4528   0.5214   0.5250
     0.8434   0.8798   4.2904   5.8479   5.9056

          k =-0.2500 0.5000-0.2500 (  3452 PWs)   bands (ev):

  -118.2140 -72.3774 -72.3773 -72.3773  -5.4968   0.5175   0.5584   0.6376
     0.8670   0.8898   2.9282   5.5230   5.6046

          k = 0.6250-0.3750 0.6250 (  3446 PWs)   bands (ev):

  -118.2140 -72.3774 -72.3773 -72.3773  -5.2990   0.5452   0.5712   0.8341
     0.8902   1.0193   1.9298   5.2016   5.5699

          k = 0.5000-0.2500 0.5000 (  3443 PWs)   bands (ev):

  -118.2140 -72.3774 -72.3773 -72.3773  -5.3446   0.5487   0.5607   0.8153
     0.8704   0.9361   2.1911   5.0932   5.7571

          k = 0.3750-0.1250 0.3750 (  3445 PWs)   bands (ev):

  -118.2140 -72.3774 -72.3773 -72.3773  -5.5969   0.5278   0.5303   0.5755
     0.8505   0.8882   3.3566   5.2737   6.0791

          k = 0.2500 0.0000 0.2500 (  3465 PWs)   bands (ev):

  -118.2140 -72.3773 -72.3773 -72.3773  -5.8793   0.4663   0.4854   0.5021
     0.8500   0.8722   4.6348   5.7907   6.3635

          k = 0.0000 0.5000 0.0000 (  3479 PWs)   bands (ev):

  -118.2140 -72.3773 -72.3773 -72.3773  -5.6464   0.4290   0.5716   0.5716
     0.8324   0.8932   4.0575   5.4476   5.4476

          k =-0.1250 0.6250-0.1250 (  3450 PWs)   bands (ev):

  -118.2140 -72.3774 -72.3773 -72.3773  -5.4071   0.4733   0.6201   0.6363
     0.8672   0.9029   3.1996   4.9669   5.1618

          k = 0.7500-0.2500 0.7500 (  3430 PWs)   bands (ev):

  -118.2140 -72.3774 -72.3773 -72.3773  -5.2084   0.5366   0.6388   0.7461
     0.8985   1.0191   2.3613   4.3804   5.1245

          k = 0.6250-0.1250 0.6250 (  3446 PWs)   bands (ev):

  -118.2140 -72.3774 -72.3773 -72.3773  -5.1858   0.5556   0.6234   0.8262
     0.8733   1.0759   2.1953   4.0452   5.3523

          k = 0.5000 0.0000 0.5000 (  3445 PWs)   bands (ev):

  -118.2140 -72.3774 -72.3773 -72.3773  -5.3549   0.5568   0.5791   0.7235
     0.8510   0.9210   2.8138   4.2905   5.7408

          k = 0.0000 0.7500 0.0000 (  3439 PWs)   bands (ev):

  -118.2140 -72.3774 -72.3773 -72.3773  -5.2460   0.4559   0.6825   0.6825
     0.9047   0.9150   2.8484   4.8119   4.8119

          k = 0.8750-0.1250 0.8750 (  3430 PWs)   bands (ev):

  -118.2140 -72.3774 -72.3773 -72.3773  -5.1086   0.4968   0.7080   0.7260
     0.9137   1.0400   2.3972   4.3172   4.7229

          k = 0.7500 0.0000 0.7500 (  3444 PWs)   bands (ev):

  -118.2140 -72.3774 -72.3773 -72.3773  -5.0846   0.5407   0.6850   0.7803
     0.8918   1.1591   2.2477   3.7530   4.9351

          k = 0.0000-1.0000 0.0000 (  3442 PWs)   bands (ev):

  -118.2140 -72.3774 -72.3773 -72.3773  -5.0642   0.4711   0.7358   0.7358
     0.9240   1.0564   2.2504   4.5650   4.5650

          k =-0.2500 0.5000 0.0000 (  3456 PWs)   bands (ev):

  -118.2140 -72.3773 -72.3773 -72.3773  -5.5617   0.4892   0.5612   0.5901
     0.8464   0.8941   3.5509   5.0275   5.7411

          k = 0.6250-0.3750 0.8750 (  3446 PWs)   bands (ev):

  -118.2140 -72.3774 -72.3773 -72.3773  -5.3123   0.5517   0.5886   0.7309
     0.8795   0.9353   2.6101   4.5381   5.4149

          k = 0.5000-0.2500 0.7500 (  3442 PWs)   bands (ev):

  -118.2140 -72.3774 -72.3773 -72.3773  -5.2016   0.5615   0.6052   0.8271
     0.8745   1.0996   2.0415   4.4187   5.2471

          k = 0.7500-0.2500 1.0000 (  3439 PWs)   bands (ev):

  -118.2140 -72.3774 -72.3773 -72.3773  -5.2151   0.5184   0.6468   0.7140
     0.9014   0.9633   2.6830   4.4348   4.8421

          k = 0.6250-0.1250 0.8750 (  3432 PWs)   bands (ev):

  -118.2140 -72.3774 -72.3773 -72.3773  -5.1032   0.5598   0.6629   0.7889
     0.8774   1.1364   2.2861   3.9551   4.7018

          k = 0.5000 0.0000 0.7500 (  3445 PWs)   bands (ev):

  -118.2140 -72.3774 -72.3773 -72.3773  -5.1459   0.5719   0.6329   0.8169
     0.8613   1.0858   2.3632   3.8553   4.9864

          k =-0.2500-1.0000 0.0000 (  3422 PWs)   bands (ev):

  -118.2140 -72.3774 -72.3773 -72.3773  -5.0617   0.5244   0.7053   0.7551
     0.9019   1.1300   2.2629   4.3192   4.3321

          k =-0.5000-1.0000 0.0000 (  3400 PWs)   bands (ev):

  -118.2140 -72.3774 -72.3774 -72.3773  -5.0593   0.5756   0.6822   0.8265
     0.8328   1.1999   2.2787   4.0870   4.1181

     highest occupied level (ev):     6.5434

!    total energy              =    -420.90241871 Ry
     estimated scf accuracy    <          1.8E-09 Ry

     The total energy is the sum of the following terms:
     one-electron contribution =    -346.12683547 Ry
     hartree contribution      =     175.94495273 Ry
     xc contribution           =     -40.95402958 Ry
     ewald contribution        =    -209.76650638 Ry

     convergence has been achieved in  12 iterations

     Writing all to output data dir ./SCRATCH/zns.save/

     init_run     :      0.84s CPU      0.91s WALL (       1 calls)
     electrons    :     35.58s CPU     35.81s WALL (       1 calls)

     Called by init_run:
     wfcinit      :      0.77s CPU      0.80s WALL (       1 calls)
     potinit      :      0.03s CPU      0.05s WALL (       1 calls)
     hinit0       :      0.03s CPU      0.04s WALL (       1 calls)

     Called by electrons:
     c_bands      :     31.48s CPU     31.57s WALL (      12 calls)
     sum_band     :      3.75s CPU      3.78s WALL (      12 calls)
     v_of_rho     :      0.33s CPU      0.44s WALL (      13 calls)
     mix_rho      :      0.03s CPU      0.05s WALL (      12 calls)

     Called by c_bands:
     init_us_2    :      0.53s CPU      0.50s WALL (     725 calls)
     init_us_2:cp :      0.53s CPU      0.50s WALL (     725 calls)
     cegterg      :     30.62s CPU     30.71s WALL (     348 calls)

     Called by *egterg:
     cdiaghg      :      0.23s CPU      0.19s WALL (    1498 calls)
     h_psi        :     26.34s CPU     26.56s WALL (    1527 calls)
     g_psi        :      0.11s CPU      0.10s WALL (    1150 calls)

     Called by h_psi:
     h_psi:calbec :      1.64s CPU      1.45s WALL (    1527 calls)
     vloc_psi     :     23.66s CPU     23.98s WALL (    1527 calls)
     add_vuspsi   :      1.03s CPU      1.05s WALL (    1527 calls)

     General routines
     calbec       :      1.64s CPU      1.45s WALL (    1527 calls)
     fft          :      0.11s CPU      0.14s WALL (     129 calls)
     ffts         :      0.02s CPU      0.01s WALL (      12 calls)
     fftw         :     25.27s CPU     25.17s WALL (   35424 calls)


     PWSCF        :     36.47s CPU     36.76s WALL


   This run was terminated on:  10:32:27   8Jun2024            

=------------------------------------------------------------------------------=
   JOB DONE.
=------------------------------------------------------------------------------=
