
     Program PWSCF v.7.2 starts on  8Jun2024 at 10:26:42 

     This program is part of the open-source Quantum ESPRESSO suite
     for quantum simulation of materials; please cite
         "P. Giannozzi et al., J. Phys.:Condens. Matter 21 395502 (2009);
         "P. Giannozzi et al., J. Phys.:Condens. Matter 29 465901 (2017);
         "P. Giannozzi et al., J. Chem. Phys. 152 154105 (2020);
          URL http://www.quantum-espresso.org", 
     in publications or presentations arising from this work. More details at
     http://www.quantum-espresso.org/quote

     Serial version
     9361 MiB available memory on the printing compute node when the environment starts

     Waiting for input...
     Reading input from standard input

     Current dimensions of program PWSCF are:
     Max number of different atomic species (ntypx) = 10
     Max number of k-points (npk) =  40000
     Max angular momentum in pseudopotentials (lmaxx) =  4


     G-vector sticks info
     --------------------
     sticks:   dense  smooth     PW     G-vecs:    dense   smooth      PW
     Sum         733     733    223                12891    12891    2133

     Using Slab Decomposition



     bravais-lattice index     =            2
     lattice parameter (alat)  =      10.2423  a.u.
     unit-cell volume          =     268.6175 (a.u.)^3
     number of atoms/cell      =            2
     number of atomic types    =            2
     number of electrons       =        26.00
     number of Kohn-Sham states=           13
     kinetic-energy cutoff     =      50.0000  Ry
     charge density cutoff     =     200.0000  Ry
     scf convergence threshold =      1.0E-08
     mixing beta               =       0.7000
     number of iterations used =            8  plain     mixing
     Exchange-correlation= PBE
                           (   1   4   3   4   0   0   0)

     celldm(1)=  10.242315  celldm(2)=   0.000000  celldm(3)=   0.000000
     celldm(4)=   0.000000  celldm(5)=   0.000000  celldm(6)=   0.000000

     crystal axes: (cart. coord. in units of alat)
               a(1) = (  -0.500000   0.000000   0.500000 )  
               a(2) = (   0.000000   0.500000   0.500000 )  
               a(3) = (  -0.500000   0.500000   0.000000 )  

     reciprocal axes: (cart. coord. in units 2 pi/alat)
               b(1) = ( -1.000000 -1.000000  1.000000 )  
               b(2) = (  1.000000  1.000000  1.000000 )  
               b(3) = ( -1.000000  1.000000 -1.000000 )  


     PseudoPot. # 1 for Zn read from file:
     /home/paolo/project_labqsm/pseudopotentials/Zn_ONCV_PBE-1.2.upf
     MD5 check sum: 732f41c0cd6489a4b50a33b4ec99a2d3
     Pseudo is Norm-conserving, Zval = 20.0
     Generated using ONCVPSP code by D. R. Hamann
     Using radial grid of  602 points,  6 beta functions with: 
                l(1) =   0
                l(2) =   0
                l(3) =   1
                l(4) =   1
                l(5) =   2
                l(6) =   2

     PseudoPot. # 2 for S  read from file:
     /home/paolo/project_labqsm/pseudopotentials/S_ONCV_PBE-1.2.upf
     MD5 check sum: f9d020296ee6110346977bfd66d424f6
     Pseudo is Norm-conserving, Zval =  6.0
     Generated using ONCVPSP code by D. R. Hamann
     Using radial grid of  602 points,  4 beta functions with: 
                l(1) =   0
                l(2) =   0
                l(3) =   1
                l(4) =   1

     atomic species   valence    mass     pseudopotential
        Zn            20.00    65.38000     Zn( 1.00)
        S              6.00    32.06000     S ( 1.00)

     24 Sym. Ops. (no inversion) found



   Cartesian axes

     site n.     atom                  positions (alat units)
         1           Zn  tau(   1) = (   0.0000000   0.0000000   0.0000000  )
         2           S   tau(   2) = (   0.2500000   0.2500000   0.2500000  )

     number of k points=    29
                       cart. coord. in units 2pi/alat
        k(    1) = (   0.0000000   0.0000000   0.0000000), wk =   0.0039062
        k(    2) = (  -0.1250000   0.1250000  -0.1250000), wk =   0.0312500
        k(    3) = (  -0.2500000   0.2500000  -0.2500000), wk =   0.0312500
        k(    4) = (  -0.3750000   0.3750000  -0.3750000), wk =   0.0312500
        k(    5) = (   0.5000000  -0.5000000   0.5000000), wk =   0.0156250
        k(    6) = (   0.0000000   0.2500000   0.0000000), wk =   0.0234375
        k(    7) = (  -0.1250000   0.3750000  -0.1250000), wk =   0.0937500
        k(    8) = (  -0.2500000   0.5000000  -0.2500000), wk =   0.0937500
        k(    9) = (   0.6250000  -0.3750000   0.6250000), wk =   0.0937500
        k(   10) = (   0.5000000  -0.2500000   0.5000000), wk =   0.0937500
        k(   11) = (   0.3750000  -0.1250000   0.3750000), wk =   0.0937500
        k(   12) = (   0.2500000   0.0000000   0.2500000), wk =   0.0468750
        k(   13) = (   0.0000000   0.5000000   0.0000000), wk =   0.0234375
        k(   14) = (  -0.1250000   0.6250000  -0.1250000), wk =   0.0937500
        k(   15) = (   0.7500000  -0.2500000   0.7500000), wk =   0.0937500
        k(   16) = (   0.6250000  -0.1250000   0.6250000), wk =   0.0937500
        k(   17) = (   0.5000000   0.0000000   0.5000000), wk =   0.0468750
        k(   18) = (   0.0000000   0.7500000   0.0000000), wk =   0.0234375
        k(   19) = (   0.8750000  -0.1250000   0.8750000), wk =   0.0937500
        k(   20) = (   0.7500000   0.0000000   0.7500000), wk =   0.0468750
        k(   21) = (   0.0000000  -1.0000000   0.0000000), wk =   0.0117188
        k(   22) = (  -0.2500000   0.5000000   0.0000000), wk =   0.0937500
        k(   23) = (   0.6250000  -0.3750000   0.8750000), wk =   0.1875000
        k(   24) = (   0.5000000  -0.2500000   0.7500000), wk =   0.0937500
        k(   25) = (   0.7500000  -0.2500000   1.0000000), wk =   0.0937500
        k(   26) = (   0.6250000  -0.1250000   0.8750000), wk =   0.1875000
        k(   27) = (   0.5000000   0.0000000   0.7500000), wk =   0.0937500
        k(   28) = (  -0.2500000  -1.0000000   0.0000000), wk =   0.0468750
        k(   29) = (  -0.5000000  -1.0000000   0.0000000), wk =   0.0234375

     Dense  grid:    12891 G-vectors     FFT dimensions: (  36,  36,  36)

     Estimated max dynamical RAM per process >      22.72 MB

     Initial potential from superposition of free atoms

     starting charge      25.9670, renormalised to      26.0000
     Starting wfcs are random

     total cpu time spent up to now is        0.4 secs

     Self-consistent Calculation

     iteration #  1     ecut=    50.00 Ry     beta= 0.70
     Davidson diagonalization with overlap
     ethr =  1.00E-02,  avg # of iterations = 12.6

     total cpu time spent up to now is        3.8 secs

     total energy              =    -420.36524012 Ry
     estimated scf accuracy    <       0.32111249 Ry

     iteration #  2     ecut=    50.00 Ry     beta= 0.70
     Davidson diagonalization with overlap
     ethr =  1.24E-03,  avg # of iterations =  3.5

     total cpu time spent up to now is        5.0 secs

     total energy              =    -420.75269485 Ry
     estimated scf accuracy    <       0.37115047 Ry

     iteration #  3     ecut=    50.00 Ry     beta= 0.70
     Davidson diagonalization with overlap
     ethr =  1.24E-03,  avg # of iterations =  2.0

     total cpu time spent up to now is        6.0 secs

     total energy              =    -420.78262130 Ry
     estimated scf accuracy    <       0.02683280 Ry

     iteration #  4     ecut=    50.00 Ry     beta= 0.70
     Davidson diagonalization with overlap
     ethr =  1.03E-04,  avg # of iterations =  2.1

     total cpu time spent up to now is        7.0 secs

     total energy              =    -420.79070184 Ry
     estimated scf accuracy    <       0.00028711 Ry

     iteration #  5     ecut=    50.00 Ry     beta= 0.70
     Davidson diagonalization with overlap
     ethr =  1.10E-06,  avg # of iterations =  3.6

     total cpu time spent up to now is        8.2 secs

     total energy              =    -420.79081067 Ry
     estimated scf accuracy    <       0.00010005 Ry

     iteration #  6     ecut=    50.00 Ry     beta= 0.70
     Davidson diagonalization with overlap
     ethr =  3.85E-07,  avg # of iterations =  2.0

     total cpu time spent up to now is        9.3 secs

     total energy              =    -420.79083335 Ry
     estimated scf accuracy    <       0.00000546 Ry

     iteration #  7     ecut=    50.00 Ry     beta= 0.70
     Davidson diagonalization with overlap
     ethr =  2.10E-08,  avg # of iterations =  2.9

     total cpu time spent up to now is       10.4 secs

     total energy              =    -420.79083530 Ry
     estimated scf accuracy    <       0.00000332 Ry

     iteration #  8     ecut=    50.00 Ry     beta= 0.70
     Davidson diagonalization with overlap
     ethr =  1.28E-08,  avg # of iterations =  2.0

     total cpu time spent up to now is       11.3 secs

     total energy              =    -420.79083536 Ry
     estimated scf accuracy    <       0.00000036 Ry

     iteration #  9     ecut=    50.00 Ry     beta= 0.70
     Davidson diagonalization with overlap
     ethr =  1.38E-09,  avg # of iterations =  2.6

     total cpu time spent up to now is       12.4 secs

     total energy              =    -420.79083552 Ry
     estimated scf accuracy    <       0.00000006 Ry

     iteration # 10     ecut=    50.00 Ry     beta= 0.70
     Davidson diagonalization with overlap
     ethr =  2.23E-10,  avg # of iterations =  2.0

     total cpu time spent up to now is       13.4 secs

     End of self-consistent calculation

          k = 0.0000 0.0000 0.0000 (  1639 PWs)   bands (ev):

  -118.2574 -72.1913 -72.1913 -72.1913  -5.6990   0.9284   0.9284   0.9284
     1.3758   1.3758   7.3741   7.3741   7.3741

          k =-0.1250 0.1250-0.1250 (  1594 PWs)   bands (ev):

  -118.2574 -72.1887 -72.1887 -72.1872  -5.5842   0.9514   0.9739   0.9739
     1.4175   1.4175   6.2628   7.2373   7.2373

          k =-0.2500 0.2500-0.2500 (  1603 PWs)   bands (ev):

  -118.2574 -72.1906 -72.1887 -72.1887  -5.2851   0.9929   1.0083   1.0083
     1.4153   1.4153   4.5453   6.9178   6.9178

          k =-0.3750 0.3750-0.3750 (  1607 PWs)   bands (ev):

  -118.2574 -72.1915 -72.1890 -72.1890  -4.9464   1.0409   1.0409   1.2219
     1.4209   1.4209   3.0279   6.6349   6.6349

          k = 0.5000-0.5000 0.5000 (  1622 PWs)   bands (ev):

  -118.2574 -72.1912 -72.1904 -72.1904  -4.7913   1.0370   1.0370   1.4221
     1.4221   1.6170   2.1450   6.5217   6.5217

          k = 0.0000 0.2500 0.0000 (  1587 PWs)   bands (ev):

  -118.2573 -72.1881 -72.1881 -72.1868  -5.5459   0.9395   1.0052   1.0052
     1.4021   1.4152   6.3064   6.9840   6.9840

          k =-0.1250 0.3750-0.1250 (  1602 PWs)   bands (ev):

  -118.2574 -72.1903 -72.1892 -72.1882  -5.3074   0.9463   1.0274   1.0309
     1.3842   1.4276   5.0207   6.6028   6.6762

          k =-0.2500 0.5000-0.2500 (  1598 PWs)   bands (ev):

  -118.2574 -72.1906 -72.1892 -72.1879  -4.9770   1.0283   1.0641   1.1378
     1.4279   1.4323   3.5384   6.2616   6.3349

          k = 0.6250-0.3750 0.6250 (  1599 PWs)   bands (ev):

  -118.2574 -72.1900 -72.1890 -72.1886  -4.7518   1.0574   1.0806   1.3689
     1.4383   1.5967   2.4234   5.9102   6.2982

          k = 0.5000-0.2500 0.5000 (  1600 PWs)   bands (ev):

  -118.2574 -72.1908 -72.1890 -72.1881  -4.8039   1.0580   1.0732   1.3350
     1.4282   1.4859   2.7239   5.7886   6.5069

          k = 0.3750-0.1250 0.3750 (  1601 PWs)   bands (ev):

  -118.2574 -72.1909 -72.1890 -72.1881  -5.0901   1.0300   1.0502   1.0737
     1.3941   1.4262   4.0064   5.9762   6.8668

          k = 0.2500 0.0000 0.2500 (  1592 PWs)   bands (ev):

  -118.2574 -72.1896 -72.1878 -72.1878  -5.4073   0.9723   1.0016   1.0056
     1.4080   1.4179   5.3915   6.5362   7.1847

          k = 0.0000 0.5000 0.0000 (  1612 PWs)   bands (ev):

  -118.2574 -72.1904 -72.1901 -72.1901  -5.1465   0.9059   1.0697   1.0697
     1.3734   1.4387   4.7961   6.1581   6.1581

          k =-0.1250 0.6250-0.1250 (  1611 PWs)   bands (ev):

  -118.2574 -72.1906 -72.1900 -72.1898  -4.8764   0.9589   1.1199   1.1405
     1.4184   1.4392   3.8611   5.6376   5.8449

          k = 0.7500-0.2500 0.7500 (  1609 PWs)   bands (ev):

  -118.2574 -72.1907 -72.1899 -72.1897  -4.6502   1.0309   1.1514   1.2630
     1.4354   1.5875   2.9152   5.0092   5.8064

          k = 0.6250-0.1250 0.6250 (  1599 PWs)   bands (ev):

  -118.2574 -72.1904 -72.1888 -72.1887  -4.6242   1.0581   1.1397   1.3627
     1.4291   1.6573   2.7175   4.6465   6.0592

          k = 0.5000 0.0000 0.5000 (  1604 PWs)   bands (ev):

  -118.2574 -72.1904 -72.1900 -72.1885  -4.8166   1.0587   1.0932   1.2284
     1.4051   1.4650   3.4234   4.9009   6.4876

          k = 0.0000 0.7500 0.0000 (  1608 PWs)   bands (ev):

  -118.2574 -72.1914 -72.1893 -72.1893  -4.6935   0.9346   1.1858   1.1858
     1.4625   1.4705   3.4912   5.4602   5.4602

          k = 0.8750-0.1250 0.8750 (  1612 PWs)   bands (ev):

  -118.2574 -72.1910 -72.1900 -72.1900  -4.5368   0.9725   1.2173   1.2458
     1.4492   1.6224   2.9760   4.9199   5.3640

          k = 0.7500 0.0000 0.7500 (  1608 PWs)   bands (ev):

  -118.2574 -72.1908 -72.1906 -72.1886  -4.5095   1.0301   1.2084   1.3030
     1.4338   1.7597   2.7830   4.3094   5.5993

          k = 0.0000-1.0000 0.0000 (  1588 PWs)   bands (ev):

  -118.2574 -72.1887 -72.1884 -72.1884  -4.4857   0.9540   1.2717   1.2717
     1.4713   1.6700   2.8189   5.1932   5.1932

          k =-0.2500 0.5000 0.0000 (  1598 PWs)   bands (ev):

  -118.2574 -72.1906 -72.1887 -72.1880  -5.0508   0.9870   1.0681   1.0980
     1.4000   1.4444   4.2349   5.7005   6.4916

          k = 0.6250-0.3750 0.8750 (  1606 PWs)   bands (ev):

  -118.2574 -72.1911 -72.1897 -72.1888  -4.7682   1.0560   1.0962   1.2409
     1.4249   1.4839   3.1939   5.1794   6.1274

          k = 0.5000-0.2500 0.7500 (  1584 PWs)   bands (ev):

  -118.2573 -72.1886 -72.1881 -72.1874  -4.6416   1.0796   1.1306   1.3739
     1.4374   1.7078   2.5382   5.0618   5.9433

          k = 0.7500-0.2500 1.0000 (  1613 PWs)   bands (ev):

  -118.2574 -72.1908 -72.1903 -72.1900  -4.6583   1.0016   1.1601   1.2208
     1.4353   1.5211   3.2944   5.0518   5.4934

          k = 0.6250-0.1250 0.8750 (  1606 PWs)   bands (ev):

  -118.2574 -72.1906 -72.1902 -72.1889  -4.5306   1.0520   1.1792   1.3147
     1.4228   1.7309   2.8281   4.5343   5.3394

          k = 0.5000 0.0000 0.7500 (  1604 PWs)   bands (ev):

  -118.2574 -72.1906 -72.1905 -72.1880  -4.5792   1.0640   1.1546   1.3420
     1.4130   1.6663   2.9172   4.4260   5.6536

          k =-0.2500-1.0000 0.0000 (  1614 PWs)   bands (ev):

  -118.2574 -72.1913 -72.1904 -72.1899  -4.4834   0.9988   1.2286   1.2666
     1.4305   1.7343   2.8124   4.9254   4.9297

          k =-0.5000-1.0000 0.0000 (  1604 PWs)   bands (ev):

  -118.2574 -72.1909 -72.1909 -72.1879  -4.4807   1.0596   1.2084   1.3585
     1.3766   1.8122   2.8181   4.6819   4.6860

     highest occupied level (ev):     7.3741

!    total energy              =    -420.79083552 Ry
     estimated scf accuracy    <          2.5E-09 Ry

     The total energy is the sum of the following terms:
     one-electron contribution =    -338.35228498 Ry
     hartree contribution      =     172.47074426 Ry
     xc contribution           =     -40.94745826 Ry
     ewald contribution        =    -213.96183654 Ry

     convergence has been achieved in  10 iterations

     Writing all to output data dir ./SCRATCH/zns.save/

     init_run     :      0.36s CPU      0.39s WALL (       1 calls)
     electrons    :     12.81s CPU     13.04s WALL (       1 calls)

     Called by init_run:
     wfcinit      :      0.33s CPU      0.33s WALL (       1 calls)
     potinit      :      0.02s CPU      0.03s WALL (       1 calls)
     hinit0       :      0.02s CPU      0.03s WALL (       1 calls)

     Called by electrons:
     c_bands      :     11.47s CPU     11.60s WALL (      10 calls)
     sum_band     :      1.20s CPU      1.26s WALL (      10 calls)
     v_of_rho     :      0.12s CPU      0.18s WALL (      11 calls)
     mix_rho      :      0.03s CPU      0.02s WALL (      10 calls)

     Called by c_bands:
     init_us_2    :      0.19s CPU      0.20s WALL (     609 calls)
     init_us_2:cp :      0.19s CPU      0.20s WALL (     609 calls)
     cegterg      :     11.11s CPU     11.25s WALL (     290 calls)

     Called by *egterg:
     cdiaghg      :      0.16s CPU      0.16s WALL (    1312 calls)
     h_psi        :      9.34s CPU      9.41s WALL (    1341 calls)
     g_psi        :      0.06s CPU      0.04s WALL (    1022 calls)

     Called by h_psi:
     h_psi:calbec :      0.61s CPU      0.59s WALL (    1341 calls)
     vloc_psi     :      8.27s CPU      8.35s WALL (    1341 calls)
     add_vuspsi   :      0.42s CPU      0.43s WALL (    1341 calls)

     General routines
     calbec       :      0.59s CPU      0.58s WALL (    1341 calls)
     fft          :      0.05s CPU      0.05s WALL (     109 calls)
     ffts         :      0.00s CPU      0.00s WALL (      10 calls)
     fftw         :      8.53s CPU      8.50s WALL (   31020 calls)


     PWSCF        :     13.19s CPU     13.47s WALL


   This run was terminated on:  10:26:56   8Jun2024            

=------------------------------------------------------------------------------=
   JOB DONE.
=------------------------------------------------------------------------------=
