
     Program PWSCF v.7.2 starts on 26May2024 at 11:26:11 

     This program is part of the open-source Quantum ESPRESSO suite
     for quantum simulation of materials; please cite
         "P. Giannozzi et al., J. Phys.:Condens. Matter 21 395502 (2009);
         "P. Giannozzi et al., J. Phys.:Condens. Matter 29 465901 (2017);
         "P. Giannozzi et al., J. Chem. Phys. 152 154105 (2020);
          URL http://www.quantum-espresso.org", 
     in publications or presentations arising from this work. More details at
     http://www.quantum-espresso.org/quote

     Serial version
     9779 MiB available memory on the printing compute node when the environment starts

     Waiting for input...
     Reading input from standard input

     Current dimensions of program PWSCF are:
     Max number of different atomic species (ntypx) = 10
     Max number of k-points (npk) =  40000
     Max angular momentum in pseudopotentials (lmaxx) =  4


     G-vector sticks info
     --------------------
     sticks:   dense  smooth     PW     G-vecs:    dense   smooth      PW
     Sum        1429    1429    421                36085    36085    5769

     Using Slab Decomposition



     bravais-lattice index     =            2
     lattice parameter (alat)  =      10.2423  a.u.
     unit-cell volume          =     268.6175 (a.u.)^3
     number of atoms/cell      =            2
     number of atomic types    =            2
     number of electrons       =         8.00
     number of Kohn-Sham states=            4
     kinetic-energy cutoff     =     100.0000  Ry
     charge density cutoff     =     400.0000  Ry
     scf convergence threshold =      1.0E-08
     mixing beta               =       0.7000
     number of iterations used =            8  plain     mixing
     Exchange-correlation= SLA-PZ-NOGX-NOGC
                           (   1   1   0   0   0   0   0)

     celldm(1)=  10.242315  celldm(2)=   0.000000  celldm(3)=   0.000000
     celldm(4)=   0.000000  celldm(5)=   0.000000  celldm(6)=   0.000000

     crystal axes: (cart. coord. in units of alat)
               a(1) = (  -0.500000   0.000000   0.500000 )  
               a(2) = (   0.000000   0.500000   0.500000 )  
               a(3) = (  -0.500000   0.500000   0.000000 )  

     reciprocal axes: (cart. coord. in units 2 pi/alat)
               b(1) = ( -1.000000 -1.000000  1.000000 )  
               b(2) = (  1.000000  1.000000  1.000000 )  
               b(3) = ( -1.000000  1.000000 -1.000000 )  


     PseudoPot. # 1 for Zn read from file:
     /home/paolo/project_labqsm/pseudopotentials/Zn.pz-hgh.UPF
     MD5 check sum: c1979979258da2eeca1fc2dcb474678d
     Pseudo is Norm-conserving, Zval =  2.0
     Generated in analytical, separable form
     Using radial grid of 1201 points,  6 beta functions with: 
                l(1) =   0
                l(2) =   0
                l(3) =   0
                l(4) =   1
                l(5) =   1
                l(6) =   2

     PseudoPot. # 2 for S  read from file:
     /home/paolo/project_labqsm/pseudopotentials/S.pz-hgh.UPF
     MD5 check sum: a0679cb0a74c01c481c24d5fd31ffa9b
     Pseudo is Norm-conserving, Zval =  6.0
     Generated in analytical, separable form
     Using radial grid of 1151 points,  3 beta functions with: 
                l(1) =   0
                l(2) =   0
                l(3) =   1

     atomic species   valence    mass     pseudopotential
        Zn             2.00    65.38000     Zn( 1.00)
        S              6.00    32.06000     S ( 1.00)

     24 Sym. Ops. (no inversion) found



   Cartesian axes

     site n.     atom                  positions (alat units)
         1           Zn  tau(   1) = (   0.0000000   0.0000000   0.0000000  )
         2           S   tau(   2) = (   0.2500000   0.2500000   0.2500000  )

     number of k points=    29
                       cart. coord. in units 2pi/alat
        k(    1) = (   0.0000000   0.0000000   0.0000000), wk =   0.0039062
        k(    2) = (  -0.1250000   0.1250000  -0.1250000), wk =   0.0312500
        k(    3) = (  -0.2500000   0.2500000  -0.2500000), wk =   0.0312500
        k(    4) = (  -0.3750000   0.3750000  -0.3750000), wk =   0.0312500
        k(    5) = (   0.5000000  -0.5000000   0.5000000), wk =   0.0156250
        k(    6) = (   0.0000000   0.2500000   0.0000000), wk =   0.0234375
        k(    7) = (  -0.1250000   0.3750000  -0.1250000), wk =   0.0937500
        k(    8) = (  -0.2500000   0.5000000  -0.2500000), wk =   0.0937500
        k(    9) = (   0.6250000  -0.3750000   0.6250000), wk =   0.0937500
        k(   10) = (   0.5000000  -0.2500000   0.5000000), wk =   0.0937500
        k(   11) = (   0.3750000  -0.1250000   0.3750000), wk =   0.0937500
        k(   12) = (   0.2500000   0.0000000   0.2500000), wk =   0.0468750
        k(   13) = (   0.0000000   0.5000000   0.0000000), wk =   0.0234375
        k(   14) = (  -0.1250000   0.6250000  -0.1250000), wk =   0.0937500
        k(   15) = (   0.7500000  -0.2500000   0.7500000), wk =   0.0937500
        k(   16) = (   0.6250000  -0.1250000   0.6250000), wk =   0.0937500
        k(   17) = (   0.5000000   0.0000000   0.5000000), wk =   0.0468750
        k(   18) = (   0.0000000   0.7500000   0.0000000), wk =   0.0234375
        k(   19) = (   0.8750000  -0.1250000   0.8750000), wk =   0.0937500
        k(   20) = (   0.7500000   0.0000000   0.7500000), wk =   0.0468750
        k(   21) = (   0.0000000  -1.0000000   0.0000000), wk =   0.0117188
        k(   22) = (  -0.2500000   0.5000000   0.0000000), wk =   0.0937500
        k(   23) = (   0.6250000  -0.3750000   0.8750000), wk =   0.1875000
        k(   24) = (   0.5000000  -0.2500000   0.7500000), wk =   0.0937500
        k(   25) = (   0.7500000  -0.2500000   1.0000000), wk =   0.0937500
        k(   26) = (   0.6250000  -0.1250000   0.8750000), wk =   0.1875000
        k(   27) = (   0.5000000   0.0000000   0.7500000), wk =   0.0937500
        k(   28) = (  -0.2500000  -1.0000000   0.0000000), wk =   0.0468750
        k(   29) = (  -0.5000000  -1.0000000   0.0000000), wk =   0.0234375

     Dense  grid:    36085 G-vectors     FFT dimensions: (  48,  48,  48)

     Estimated max dynamical RAM per process >      39.03 MB

     Initial potential from superposition of free atoms

     starting charge       6.0000, renormalised to       8.0000
     Starting wfcs are   18 randomized atomic wfcs

     total cpu time spent up to now is        1.5 secs

     Self-consistent Calculation

     iteration #  1     ecut=   100.00 Ry     beta= 0.70
     Davidson diagonalization with overlap
     ethr =  1.00E-02,  avg # of iterations =  2.0

     total cpu time spent up to now is        2.4 secs

     total energy              =     -22.67011970 Ry
     estimated scf accuracy    <       0.64806133 Ry

     iteration #  2     ecut=   100.00 Ry     beta= 0.70
     Davidson diagonalization with overlap
     ethr =  8.10E-03,  avg # of iterations =  2.0

     total cpu time spent up to now is        3.3 secs

     total energy              =     -22.87515819 Ry
     estimated scf accuracy    <       0.12503613 Ry

     iteration #  3     ecut=   100.00 Ry     beta= 0.70
     Davidson diagonalization with overlap
     ethr =  1.56E-03,  avg # of iterations =  2.0

     negative rho (up, down):  2.754E-08 0.000E+00

     total cpu time spent up to now is        4.2 secs

     total energy              =     -22.88878463 Ry
     estimated scf accuracy    <       0.00370917 Ry

     iteration #  4     ecut=   100.00 Ry     beta= 0.70
     Davidson diagonalization with overlap
     ethr =  4.64E-05,  avg # of iterations =  2.3

     total cpu time spent up to now is        5.1 secs

     total energy              =     -22.89024834 Ry
     estimated scf accuracy    <       0.00236138 Ry

     iteration #  5     ecut=   100.00 Ry     beta= 0.70
     Davidson diagonalization with overlap
     ethr =  2.95E-05,  avg # of iterations =  1.3

     total cpu time spent up to now is        5.9 secs

     total energy              =     -22.89034191 Ry
     estimated scf accuracy    <       0.00022347 Ry

     iteration #  6     ecut=   100.00 Ry     beta= 0.70
     Davidson diagonalization with overlap
     ethr =  2.79E-06,  avg # of iterations =  2.6

     total cpu time spent up to now is        6.9 secs

     total energy              =     -22.89041935 Ry
     estimated scf accuracy    <       0.00000023 Ry

     iteration #  7     ecut=   100.00 Ry     beta= 0.70
     Davidson diagonalization with overlap
     ethr =  2.91E-09,  avg # of iterations =  6.7

     total cpu time spent up to now is        8.5 secs

     total energy              =     -22.89042161 Ry
     estimated scf accuracy    <       0.00000066 Ry

     iteration #  8     ecut=   100.00 Ry     beta= 0.70
     Davidson diagonalization with overlap
     ethr =  2.91E-09,  avg # of iterations =  2.0

     total cpu time spent up to now is        9.5 secs

     End of self-consistent calculation

          k = 0.0000 0.0000 0.0000 (  4573 PWs)   bands (ev):

   -10.0701   2.3646   2.3646   2.3646

          k =-0.1250 0.1250-0.1250 (  4552 PWs)   bands (ev):

    -9.9456   1.2506   2.2457   2.2457

          k =-0.2500 0.2500-0.2500 (  4543 PWs)   bands (ev):

    -9.6068  -0.4873   1.9889   1.9889

          k =-0.3750 0.3750-0.3750 (  4546 PWs)   bands (ev):

    -9.1912  -1.8845   1.7647   1.7647

          k = 0.5000-0.5000 0.5000 (  4512 PWs)   bands (ev):

    -8.9850  -2.4382   1.6794   1.6794

          k = 0.0000 0.2500 0.0000 (  4557 PWs)   bands (ev):

    -9.9042   1.2650   2.0127   2.0127

          k =-0.1250 0.3750-0.1250 (  4551 PWs)   bands (ev):

    -9.6357  -0.0402   1.6960   1.7469

          k =-0.2500 0.5000-0.2500 (  4556 PWs)   bands (ev):

    -9.2362  -1.4417   1.3689   1.4856

          k = 0.6250-0.3750 0.6250 (  4522 PWs)   bands (ev):

    -8.9387  -2.2517   1.0464   1.4731

          k = 0.5000-0.2500 0.5000 (  4536 PWs)   bands (ev):

    -9.0086  -2.0715   0.9311   1.6576

          k = 0.3750-0.1250 0.3750 (  4551 PWs)   bands (ev):

    -9.3754  -1.0142   1.1002   1.9588

          k = 0.2500 0.0000 0.2500 (  4549 PWs)   bands (ev):

    -9.7487   0.3398   1.6135   2.2170

          k = 0.0000 0.5000 0.0000 (  4552 PWs)   bands (ev):

    -9.4523  -0.3305   1.3090   1.3090

          k =-0.1250 0.6250-0.1250 (  4546 PWs)   bands (ev):

    -9.1222  -1.2097   0.8143   1.0532

          k = 0.7500-0.2500 0.7500 (  4528 PWs)   bands (ev):

    -8.8176  -1.8827   0.1621   1.0362

          k = 0.6250-0.1250 0.6250 (  4531 PWs)   bands (ev):

    -8.7743  -1.9372  -0.2171   1.2617

          k = 0.5000 0.0000 0.5000 (  4544 PWs)   bands (ev):

    -9.0316  -1.4911   0.0544   1.6362

          k = 0.0000 0.7500 0.0000 (  4544 PWs)   bands (ev):

    -8.8957  -1.6067   0.7326   0.7326

          k = 0.8750-0.1250 0.8750 (  4529 PWs)   bands (ev):

    -8.6800  -1.9467   0.1920   0.6609

          k = 0.7500 0.0000 0.7500 (  4526 PWs)   bands (ev):

    -8.6272  -1.8841  -0.5001   0.8629

          k = 0.0000-1.0000 0.0000 (  4488 PWs)   bands (ev):

    -8.6172  -2.1286   0.5189   0.5189

          k =-0.2500 0.5000 0.0000 (  4544 PWs)   bands (ev):

    -9.3324  -0.8268   0.8534   1.6085

          k = 0.6250-0.3750 0.8750 (  4538 PWs)   bands (ev):

    -8.9708  -1.6895   0.3343   1.2959

          k = 0.5000-0.2500 0.7500 (  4508 PWs)   bands (ev):

    -8.7967  -2.0829   0.1956   1.1377

          k = 0.7500-0.2500 1.0000 (  4546 PWs)   bands (ev):

    -8.8380  -1.6650   0.2805   0.7216

          k = 0.6250-0.1250 0.8750 (  4529 PWs)   bands (ev):

    -8.6546  -1.8494  -0.2940   0.5834

          k = 0.5000 0.0000 0.7500 (  4524 PWs)   bands (ev):

    -8.7170  -1.7689  -0.4210   0.8635

          k =-0.2500-1.0000 0.0000 (  4538 PWs)   bands (ev):

    -8.6007  -1.9809   0.1292   0.2733

          k =-0.5000-1.0000 0.0000 (  4540 PWs)   bands (ev):

    -8.5840  -1.7809  -0.2807   0.0586

     highest occupied level (ev):     2.3646

!    total energy              =     -22.89042172 Ry
     estimated scf accuracy    <          9.7E-09 Ry

     The total energy is the sum of the following terms:
     one-electron contribution =      -1.15820914 Ry
     hartree contribution      =       3.49097844 Ry
     xc contribution           =      -5.43850865 Ry
     ewald contribution        =     -19.78468237 Ry

     convergence has been achieved in   8 iterations

     Writing all to output data dir ./SCRATCH/zns.save/

     init_run     :      1.45s CPU      1.50s WALL (       1 calls)
     electrons    :      7.84s CPU      7.94s WALL (       1 calls)

     Called by init_run:
     wfcinit      :      1.27s CPU      1.28s WALL (       1 calls)
     potinit      :      0.02s CPU      0.02s WALL (       1 calls)
     hinit0       :      0.16s CPU      0.17s WALL (       1 calls)

     Called by electrons:
     c_bands      :      6.69s CPU      6.78s WALL (       8 calls)
     sum_band     :      1.08s CPU      1.07s WALL (       8 calls)
     v_of_rho     :      0.08s CPU      0.05s WALL (       9 calls)
     mix_rho      :      0.00s CPU      0.04s WALL (       8 calls)

     Called by c_bands:
     init_us_2    :      0.45s CPU      0.41s WALL (     493 calls)
     init_us_2:cp :      0.45s CPU      0.41s WALL (     493 calls)
     cegterg      :      6.27s CPU      6.28s WALL (     232 calls)

     Called by *egterg:
     cdiaghg      :      0.03s CPU      0.02s WALL (     839 calls)
     h_psi        :      6.86s CPU      6.88s WALL (     868 calls)
     g_psi        :      0.02s CPU      0.03s WALL (     607 calls)

     Called by h_psi:
     h_psi:calbec :      0.36s CPU      0.32s WALL (     868 calls)
     vloc_psi     :      6.30s CPU      6.30s WALL (     868 calls)
     add_vuspsi   :      0.16s CPU      0.23s WALL (     868 calls)

     General routines
     calbec       :      0.36s CPU      0.32s WALL (     868 calls)
     fft          :      0.06s CPU      0.04s WALL (      26 calls)
     ffts         :      0.00s CPU      0.01s WALL (       8 calls)
     fftw         :      6.36s CPU      6.51s WALL (    7844 calls)


     PWSCF        :      9.34s CPU      9.50s WALL


   This run was terminated on:  11:26:20  26May2024            

=------------------------------------------------------------------------------=
   JOB DONE.
=------------------------------------------------------------------------------=
