
     Program BANDS v.7.2 starts on 10Jun2024 at 12:12:20 

     This program is part of the open-source Quantum ESPRESSO suite
     for quantum simulation of materials; please cite
         "P. Giannozzi et al., J. Phys.:Condens. Matter 21 395502 (2009);
         "P. Giannozzi et al., J. Phys.:Condens. Matter 29 465901 (2017);
         "P. Giannozzi et al., J. Chem. Phys. 152 154105 (2020);
          URL http://www.quantum-espresso.org", 
     in publications or presentations arising from this work. More details at
     http://www.quantum-espresso.org/quote

     Serial version
     8357 MiB available memory on the printing compute node when the environment starts


     Reading xml data from directory:

     ./SCRATCH/zns_w.save/

     IMPORTANT: XC functional enforced from input :
     Exchange-correlation= PBE
                           (   1   4   3   4   0   0   0)
     Any further DFT definition will be discarded
     Please, verify this is what you really want


     G-vector sticks info
     --------------------
     sticks:   dense  smooth     PW     G-vecs:    dense   smooth      PW
     Sum         859     859    283                34121    34121    6339

     Using Slab Decomposition

     Reading collected, re-writing distributed wavefunctions
     high-symmetry point:  0.5000 0.8660 0.0000   x coordinate   0.0000
     high-symmetry point:  0.0000 0.0000 0.0000   x coordinate   1.0000
     high-symmetry point:  0.5000 0.8660 0.3051   x coordinate   2.0455
     high-symmetry point:  0.7500 1.0104 0.1526   x coordinate   2.3720
     high-symmetry point:  0.7500 0.8660 0.2288   x coordinate   2.5353
     high-symmetry point:  0.0000 0.0000 0.0000   x coordinate   2.5353

     Plottable bands (eV) written to file bands_zns_w.dat.gnu
     Bands written to file bands_zns_w.dat

 **************************************************************************

                    xk=(   0.50000,   0.86603,   0.00000  )

     point group C_s (m)    
     there are  2 classes
     the character table:

       E     s    
A'     1.00  1.00
A''    1.00 -1.00

     the symmetry operations in each class and the name of the first element:

     E        1
                                                                 
     s        2
                                                                 

     Band symmetry, C_s (m)     point group:

     e(  1 -  1) =   -121.52500  eV     1   --> A'             
     e(  2 -  2) =   -120.65399  eV     1   --> A'             
     e(  3 -  3) =    -76.88999  eV     1   --> A'             
     e(  4 -  4) =    -75.95575  eV     1   --> A'             
     e(  5 -  6) =    -75.34079  eV     2   --> A'             
     e(  5 -  6) =    -75.34079  eV     2   --> A''            
     e(  7 -  8) =    -74.57235  eV     2   --> A'             
     e(  7 -  8) =    -74.57235  eV     2   --> A''            
     e(  9 -  9) =     -9.13254  eV     1   --> A'             
     e( 10 - 10) =     -6.82331  eV     1   --> A'             
     e( 11 - 11) =     -4.23559  eV     1   --> A'             
     e( 12 - 12) =     -4.09005  eV     1   --> A''            
     e( 13 - 13) =     -3.64619  eV     1   --> A'             
     e( 14 - 14) =     -3.05105  eV     1   --> A'             
     e( 15 - 15) =     -2.91433  eV     1   --> A''            

 **************************************************************************

 **************************************************************************

                    xk=(   0.48750,   0.84437,   0.00000  )

     point group C_1 (1)    
     there are  1 classes
     the character table:

       E    
A      1.00

     the symmetry operations in each class and the name of the first element:

     E        1
                                                                 

     Band symmetry, C_1 (1)     point group:

     e(  1 -  1) =   -121.52500  eV     1   --> A              
     e(  2 -  2) =   -120.65399  eV     1   --> A              
     e(  3 -  3) =    -76.88999  eV     1   --> A              
     e(  4 -  4) =    -75.95575  eV     1   --> A              
     e(  5 -  6) =    -75.34079  eV     2   -->   2 A              
     e(  7 -  8) =    -74.57235  eV     2   -->   2 A              
     e(  9 -  9) =     -9.13199  eV     1   --> A              
     e( 10 - 10) =     -6.82321  eV     1   --> A              
     e( 11 - 11) =     -4.23511  eV     1   --> A              
     e( 12 - 12) =     -4.09078  eV     1   --> A              
     e( 13 - 13) =     -3.64537  eV     1   --> A              
     e( 14 - 14) =     -3.05092  eV     1   --> A              
     e( 15 - 15) =     -2.91480  eV     1   --> A              

 **************************************************************************

 **************************************************************************

                    xk=(   0.47500,   0.82272,   0.00000  )

     Band symmetry, C_1 (1)     point group:

     e(  1 -  1) =   -121.52500  eV     1   --> A              
     e(  2 -  2) =   -120.65399  eV     1   --> A              
     e(  3 -  3) =    -76.88999  eV     1   --> A              
     e(  4 -  4) =    -75.95575  eV     1   --> A              
     e(  5 -  6) =    -75.34079  eV     2   -->   2 A              
     e(  7 -  8) =    -74.57235  eV     2   -->   2 A              
     e(  9 -  9) =     -9.13033  eV     1   --> A              
     e( 10 - 10) =     -6.82286  eV     1   --> A              
     e( 11 - 11) =     -4.23351  eV     1   --> A              
     e( 12 - 12) =     -4.09278  eV     1   --> A              
     e( 13 - 13) =     -3.64269  eV     1   --> A              
     e( 14 - 14) =     -3.05044  eV     1   --> A              
     e( 15 - 15) =     -2.91581  eV     1   --> A              

 **************************************************************************

 **************************************************************************

                    xk=(   0.46250,   0.80107,   0.00000  )

     Band symmetry, C_1 (1)     point group:

     e(  1 -  1) =   -121.52500  eV     1   --> A              
     e(  2 -  2) =   -120.65399  eV     1   --> A              
     e(  3 -  3) =    -76.88998  eV     1   --> A              
     e(  4 -  4) =    -75.95575  eV     1   --> A              
     e(  5 -  6) =    -75.34079  eV     2   -->   2 A              
     e(  7 -  8) =    -74.57235  eV     2   -->   2 A              
     e(  9 -  9) =     -9.12762  eV     1   --> A              
     e( 10 - 10) =     -6.82223  eV     1   --> A              
     e( 11 - 11) =     -4.23086  eV     1   --> A              
     e( 12 - 12) =     -4.09592  eV     1   --> A              
     e( 13 - 13) =     -3.63818  eV     1   --> A              
     e( 14 - 14) =     -3.04967  eV     1   --> A              
     e( 15 - 15) =     -2.91726  eV     1   --> A              

 **************************************************************************

 **************************************************************************

                    xk=(   0.45000,   0.77942,   0.00000  )

     Band symmetry, C_1 (1)     point group:

     e(  1 -  1) =   -121.52500  eV     1   --> A              
     e(  2 -  2) =   -120.65399  eV     1   --> A              
     e(  3 -  3) =    -76.88999  eV     1   --> A              
     e(  4 -  4) =    -75.95575  eV     1   --> A              
     e(  5 -  6) =    -75.34079  eV     2   -->   2 A              
     e(  7 -  8) =    -74.57235  eV     2   -->   2 A              
     e(  9 -  9) =     -9.12402  eV     1   --> A              
     e( 10 - 10) =     -6.82146  eV     1   --> A              
     e( 11 - 11) =     -4.22740  eV     1   --> A              
     e( 12 - 12) =     -4.10043  eV     1   --> A              
     e( 13 - 13) =     -3.63239  eV     1   --> A              
     e( 14 - 14) =     -3.04880  eV     1   --> A              
     e( 15 - 15) =     -2.91968  eV     1   --> A              

 **************************************************************************

 **************************************************************************

                    xk=(   0.43750,   0.75777,   0.00000  )

     Band symmetry, C_1 (1)     point group:

     e(  1 -  1) =   -121.52500  eV     1   --> A              
     e(  2 -  2) =   -120.65399  eV     1   --> A              
     e(  3 -  3) =    -76.88998  eV     1   --> A              
     e(  4 -  4) =    -75.95575  eV     1   --> A              
     e(  5 -  6) =    -75.34079  eV     2   -->   2 A              
     e(  7 -  8) =    -74.57235  eV     2   -->   2 A              
     e(  9 -  9) =     -9.11964  eV     1   --> A              
     e( 10 - 10) =     -6.82049  eV     1   --> A              
     e( 11 - 11) =     -4.22296  eV     1   --> A              
     e( 12 - 12) =     -4.10607  eV     1   --> A              
     e( 13 - 13) =     -3.62519  eV     1   --> A              
     e( 14 - 14) =     -3.04771  eV     1   --> A              
     e( 15 - 15) =     -2.92262  eV     1   --> A              

 **************************************************************************

 **************************************************************************

                    xk=(   0.42500,   0.73612,   0.00000  )

     Band symmetry, C_1 (1)     point group:

     e(  1 -  1) =   -121.52500  eV     1   --> A              
     e(  2 -  2) =   -120.65399  eV     1   --> A              
     e(  3 -  3) =    -76.88998  eV     1   --> A              
     e(  4 -  4) =    -75.95575  eV     1   --> A              
     e(  5 -  6) =    -75.34079  eV     2   -->   2 A              
     e(  7 -  8) =    -74.57235  eV     2   -->   2 A              
     e(  9 -  9) =     -9.11470  eV     1   --> A              
     e( 10 - 10) =     -6.81945  eV     1   --> A              
     e( 11 - 11) =     -4.21778  eV     1   --> A              
     e( 12 - 12) =     -4.11226  eV     1   --> A              
     e( 13 - 13) =     -3.61734  eV     1   --> A              
     e( 14 - 14) =     -3.04647  eV     1   --> A              
     e( 15 - 15) =     -2.92540  eV     1   --> A              

 **************************************************************************

 **************************************************************************

                    xk=(   0.41250,   0.71447,   0.00000  )

     Band symmetry, C_1 (1)     point group:

     e(  1 -  1) =   -121.52500  eV     1   --> A              
     e(  2 -  2) =   -120.65399  eV     1   --> A              
     e(  3 -  3) =    -76.88998  eV     1   --> A              
     e(  4 -  4) =    -75.95575  eV     1   --> A              
     e(  5 -  6) =    -75.34078  eV     2   -->   2 A              
     e(  7 -  8) =    -74.57234  eV     2   -->   2 A              
     e(  9 -  9) =     -9.10941  eV     1   --> A              
     e( 10 - 10) =     -6.81834  eV     1   --> A              
     e( 11 - 11) =     -4.21186  eV     1   --> A              
     e( 12 - 12) =     -4.11914  eV     1   --> A              
     e( 13 - 13) =     -3.60889  eV     1   --> A              
     e( 14 - 14) =     -3.04513  eV     1   --> A              
     e( 15 - 15) =     -2.92834  eV     1   --> A              

 **************************************************************************

 **************************************************************************

                    xk=(   0.40000,   0.69282,   0.00000  )

     Band symmetry, C_1 (1)     point group:

     e(  1 -  1) =   -121.52500  eV     1   --> A              
     e(  2 -  2) =   -120.65399  eV     1   --> A              
     e(  3 -  3) =    -76.88998  eV     1   --> A              
     e(  4 -  4) =    -75.95575  eV     1   --> A              
     e(  5 -  6) =    -75.34078  eV     2   -->   2 A              
     e(  7 -  8) =    -74.57234  eV     2   -->   2 A              
     e(  9 -  9) =     -9.10404  eV     1   --> A              
     e( 10 - 10) =     -6.81725  eV     1   --> A              
     e( 11 - 11) =     -4.20560  eV     1   --> A              
     e( 12 - 12) =     -4.12672  eV     1   --> A              
     e( 13 - 13) =     -3.60036  eV     1   --> A              
     e( 14 - 14) =     -3.04410  eV     1   --> A              
     e( 15 - 15) =     -2.93140  eV     1   --> A              

 **************************************************************************

 **************************************************************************

                    xk=(   0.38750,   0.67117,   0.00000  )

     Band symmetry, C_1 (1)     point group:

     e(  1 -  1) =   -121.52500  eV     1   --> A              
     e(  2 -  2) =   -120.65399  eV     1   --> A              
     e(  3 -  3) =    -76.88999  eV     1   --> A              
     e(  4 -  4) =    -75.95576  eV     1   --> A              
     e(  5 -  6) =    -75.34078  eV     2   -->   2 A              
     e(  7 -  8) =    -74.57234  eV     2   -->   2 A              
     e(  9 -  9) =     -9.09887  eV     1   --> A              
     e( 10 - 10) =     -6.81624  eV     1   --> A              
     e( 11 - 11) =     -4.19886  eV     1   --> A              
     e( 12 - 12) =     -4.13449  eV     1   --> A              
     e( 13 - 13) =     -3.59228  eV     1   --> A              
     e( 14 - 14) =     -3.04310  eV     1   --> A              
     e( 15 - 15) =     -2.93418  eV     1   --> A              

 **************************************************************************

 **************************************************************************

                    xk=(   0.37500,   0.64952,   0.00000  )

     Band symmetry, C_1 (1)     point group:

     e(  1 -  1) =   -121.52500  eV     1   --> A              
     e(  2 -  2) =   -120.65399  eV     1   --> A              
     e(  3 -  3) =    -76.88999  eV     1   --> A              
     e(  4 -  4) =    -75.95576  eV     1   --> A              
     e(  5 -  6) =    -75.34078  eV     2   -->   2 A              
     e(  7 -  8) =    -74.57233  eV     2   -->   2 A              
     e(  9 -  9) =     -9.09416  eV     1   --> A              
     e( 10 - 10) =     -6.81528  eV     1   --> A              
     e( 11 - 11) =     -4.19181  eV     1   --> A              
     e( 12 - 12) =     -4.14226  eV     1   --> A              
     e( 13 - 13) =     -3.58468  eV     1   --> A              
     e( 14 - 14) =     -3.04225  eV     1   --> A              
     e( 15 - 15) =     -2.93632  eV     1   --> A              

 **************************************************************************

 **************************************************************************

                    xk=(   0.36250,   0.62787,   0.00000  )

     Band symmetry, C_1 (1)     point group:

     e(  1 -  1) =   -121.52500  eV     1   --> A              
     e(  2 -  2) =   -120.65399  eV     1   --> A              
     e(  3 -  3) =    -76.88999  eV     1   --> A              
     e(  4 -  4) =    -75.95575  eV     1   --> A              
     e(  5 -  6) =    -75.34078  eV     2   -->   2 A              
     e(  7 -  8) =    -74.57233  eV     2   -->   2 A              
     e(  9 -  9) =     -9.09026  eV     1   --> A              
     e( 10 - 10) =     -6.81449  eV     1   --> A              
     e( 11 - 11) =     -4.18460  eV     1   --> A              
     e( 12 - 12) =     -4.15003  eV     1   --> A              
     e( 13 - 13) =     -3.57838  eV     1   --> A              
     e( 14 - 14) =     -3.04164  eV     1   --> A              
     e( 15 - 15) =     -2.93790  eV     1   --> A              

 **************************************************************************

 **************************************************************************

                    xk=(   0.35000,   0.60622,   0.00000  )

     Band symmetry, C_1 (1)     point group:

     e(  1 -  1) =   -121.52500  eV     1   --> A              
     e(  2 -  2) =   -120.65399  eV     1   --> A              
     e(  3 -  3) =    -76.88999  eV     1   --> A              
     e(  4 -  4) =    -75.95575  eV     1   --> A              
     e(  5 -  6) =    -75.34077  eV     2   -->   2 A              
     e(  7 -  8) =    -74.57233  eV     2   -->   2 A              
     e(  9 -  9) =     -9.08746  eV     1   --> A              
     e( 10 - 10) =     -6.81393  eV     1   --> A              
     e( 11 - 11) =     -4.17733  eV     1   --> A              
     e( 12 - 12) =     -4.15764  eV     1   --> A              
     e( 13 - 13) =     -3.57378  eV     1   --> A              
     e( 14 - 14) =     -3.04125  eV     1   --> A              
     e( 15 - 15) =     -2.93893  eV     1   --> A              

 **************************************************************************

 **************************************************************************

                    xk=(   0.33750,   0.58457,   0.00000  )

     Band symmetry, C_1 (1)     point group:

     e(  1 -  1) =   -121.52500  eV     1   --> A              
     e(  2 -  2) =   -120.65399  eV     1   --> A              
     e(  3 -  3) =    -76.88999  eV     1   --> A              
     e(  4 -  4) =    -75.95575  eV     1   --> A              
     e(  5 -  6) =    -75.34077  eV     2   -->   2 A              
     e(  7 -  8) =    -74.57233  eV     2   -->   2 A              
     e(  9 -  9) =     -9.08609  eV     1   --> A              
     e( 10 - 10) =     -6.81368  eV     1   --> A              
     e( 11 - 11) =     -4.17006  eV     1   --> A              
     e( 12 - 12) =     -4.16510  eV     1   --> A              
     e( 13 - 13) =     -3.57164  eV     1   --> A              
     e( 14 - 14) =     -3.04110  eV     1   --> A              
     e( 15 - 15) =     -2.93938  eV     1   --> A              

 **************************************************************************

 **************************************************************************

                    xk=(   0.32500,   0.56292,   0.00000  )

     Band symmetry, C_1 (1)     point group:

     e(  1 -  1) =   -121.52500  eV     1   --> A              
     e(  2 -  2) =   -120.65399  eV     1   --> A              
     e(  3 -  3) =    -76.88999  eV     1   --> A              
     e(  4 -  4) =    -75.95575  eV     1   --> A              
     e(  5 -  6) =    -75.34077  eV     2   -->   2 A              
     e(  7 -  8) =    -74.57233  eV     2   -->   2 A              
     e(  9 -  9) =     -9.08640  eV     1   --> A              
     e( 10 - 10) =     -6.81374  eV     1   --> A              
     e( 11 - 11) =     -4.17223  eV     1   --> A              
     e( 12 - 12) =     -4.16255  eV     1   --> A              
     e( 13 - 13) =     -3.57218  eV     1   --> A              
     e( 14 - 14) =     -3.04092  eV     1   --> A              
     e( 15 - 15) =     -2.93908  eV     1   --> A              

 **************************************************************************

 **************************************************************************

                    xk=(   0.31250,   0.54127,   0.00000  )

     Band symmetry, C_1 (1)     point group:

     e(  1 -  1) =   -121.52500  eV     1   --> A              
     e(  2 -  2) =   -120.65399  eV     1   --> A              
     e(  3 -  3) =    -76.88998  eV     1   --> A              
     e(  4 -  4) =    -75.95575  eV     1   --> A              
     e(  5 -  6) =    -75.34078  eV     2   -->   2 A              
     e(  7 -  8) =    -74.57233  eV     2   -->   2 A              
     e(  9 -  9) =     -9.08863  eV     1   --> A              
     e( 10 - 10) =     -6.81412  eV     1   --> A              
     e( 11 - 11) =     -4.17900  eV     1   --> A              
     e( 12 - 12) =     -4.15545  eV     1   --> A              
     e( 13 - 13) =     -3.57556  eV     1   --> A              
     e( 14 - 14) =     -3.04103  eV     1   --> A              
     e( 15 - 15) =     -2.93848  eV     1   --> A              

 **************************************************************************

 **************************************************************************

                    xk=(   0.30000,   0.51962,   0.00000  )

     Band symmetry, C_1 (1)     point group:

     e(  1 -  1) =   -121.52500  eV     1   --> A              
     e(  2 -  2) =   -120.65399  eV     1   --> A              
     e(  3 -  3) =    -76.88999  eV     1   --> A              
     e(  4 -  4) =    -75.95575  eV     1   --> A              
     e(  5 -  6) =    -75.34078  eV     2   -->   2 A              
     e(  7 -  8) =    -74.57233  eV     2   -->   2 A              
     e(  9 -  9) =     -9.09306  eV     1   --> A              
     e( 10 - 10) =     -6.81493  eV     1   --> A              
     e( 11 - 11) =     -4.18523  eV     1   --> A              
     e( 12 - 12) =     -4.14878  eV     1   --> A              
     e( 13 - 13) =     -3.58246  eV     1   --> A              
     e( 14 - 14) =     -3.04120  eV     1   --> A              
     e( 15 - 15) =     -2.93768  eV     1   --> A              

 **************************************************************************

 **************************************************************************

                    xk=(   0.28750,   0.49796,   0.00000  )

     Band symmetry, C_1 (1)     point group:

     e(  1 -  1) =   -121.52500  eV     1   --> A              
     e(  2 -  2) =   -120.65399  eV     1   --> A              
     e(  3 -  3) =    -76.88998  eV     1   --> A              
     e(  4 -  4) =    -75.95575  eV     1   --> A              
     e(  5 -  6) =    -75.34078  eV     2   -->   2 A              
     e(  7 -  8) =    -74.57233  eV     2   -->   2 A              
     e(  9 -  9) =     -9.09982  eV     1   --> A              
     e( 10 - 10) =     -6.81613  eV     1   --> A              
     e( 11 - 11) =     -4.19069  eV     1   --> A              
     e( 12 - 12) =     -4.14218  eV     1   --> A              
     e( 13 - 13) =     -3.59279  eV     1   --> A              
     e( 14 - 14) =     -3.04090  eV     1   --> A              
     e( 15 - 15) =     -2.93622  eV     1   --> A              

 **************************************************************************

 **************************************************************************

                    xk=(   0.27500,   0.47631,   0.00000  )

     Band symmetry, C_1 (1)     point group:

     e(  1 -  1) =   -121.52500  eV     1   --> A              
     e(  2 -  2) =   -120.65399  eV     1   --> A              
     e(  3 -  3) =    -76.88998  eV     1   --> A              
     e(  4 -  4) =    -75.95575  eV     1   --> A              
     e(  5 -  6) =    -75.34078  eV     2   -->   2 A              
     e(  7 -  8) =    -74.57233  eV     2   -->   2 A              
     e(  9 -  9) =     -9.10903  eV     1   --> A              
     e( 10 - 10) =     -6.81773  eV     1   --> A              
     e( 11 - 11) =     -4.19573  eV     1   --> A              
     e( 12 - 12) =     -4.13586  eV     1   --> A              
     e( 13 - 13) =     -3.60650  eV     1   --> A              
     e( 14 - 14) =     -3.04048  eV     1   --> A              
     e( 15 - 15) =     -2.93475  eV     1   --> A              

 **************************************************************************

 **************************************************************************

                    xk=(   0.26250,   0.45466,   0.00000  )

     Band symmetry, C_1 (1)     point group:

     e(  1 -  1) =   -121.52500  eV     1   --> A              
     e(  2 -  2) =   -120.65399  eV     1   --> A              
     e(  3 -  3) =    -76.88998  eV     1   --> A              
     e(  4 -  4) =    -75.95574  eV     1   --> A              
     e(  5 -  6) =    -75.34078  eV     2   -->   2 A              
     e(  7 -  8) =    -74.57233  eV     2   -->   2 A              
     e(  9 -  9) =     -9.12072  eV     1   --> A              
     e( 10 - 10) =     -6.81971  eV     1   --> A              
     e( 11 - 11) =     -4.19983  eV     1   --> A              
     e( 12 - 12) =     -4.12973  eV     1   --> A              
     e( 13 - 13) =     -3.62345  eV     1   --> A              
     e( 14 - 14) =     -3.03935  eV     1   --> A              
     e( 15 - 15) =     -2.93299  eV     1   --> A              

 **************************************************************************

 **************************************************************************

                    xk=(   0.25000,   0.43301,   0.00000  )

     Band symmetry, C_1 (1)     point group:

     e(  1 -  1) =   -121.52500  eV     1   --> A              
     e(  2 -  2) =   -120.65399  eV     1   --> A              
     e(  3 -  3) =    -76.88998  eV     1   --> A              
     e(  4 -  4) =    -75.95574  eV     1   --> A              
     e(  5 -  6) =    -75.34078  eV     2   -->   2 A              
     e(  7 -  8) =    -74.57233  eV     2   -->   2 A              
     e(  9 -  9) =     -9.13492  eV     1   --> A              
     e( 10 - 10) =     -6.82211  eV     1   --> A              
     e( 11 - 11) =     -4.20345  eV     1   --> A              
     e( 12 - 12) =     -4.12390  eV     1   --> A              
     e( 13 - 13) =     -3.64354  eV     1   --> A              
     e( 14 - 14) =     -3.03787  eV     1   --> A              
     e( 15 - 15) =     -2.93131  eV     1   --> A              

 **************************************************************************

 **************************************************************************

                    xk=(   0.23750,   0.41136,   0.00000  )

     Band symmetry, C_1 (1)     point group:

     e(  1 -  1) =   -121.52500  eV     1   --> A              
     e(  2 -  2) =   -120.65399  eV     1   --> A              
     e(  3 -  3) =    -76.88998  eV     1   --> A              
     e(  4 -  4) =    -75.95575  eV     1   --> A              
     e(  5 -  6) =    -75.34078  eV     2   -->   2 A              
     e(  7 -  8) =    -74.57233  eV     2   -->   2 A              
     e(  9 -  9) =     -9.15153  eV     1   --> A              
     e( 10 - 10) =     -6.82489  eV     1   --> A              
     e( 11 - 11) =     -4.20625  eV     1   --> A              
     e( 12 - 12) =     -4.11831  eV     1   --> A              
     e( 13 - 13) =     -3.66635  eV     1   --> A              
     e( 14 - 14) =     -3.03562  eV     1   --> A              
     e( 15 - 15) =     -2.92962  eV     1   --> A              

 **************************************************************************

 **************************************************************************

                    xk=(   0.22500,   0.38971,   0.00000  )

     Band symmetry, C_1 (1)     point group:

     e(  1 -  1) =   -121.52500  eV     1   --> A              
     e(  2 -  2) =   -120.65399  eV     1   --> A              
     e(  3 -  3) =    -76.88998  eV     1   --> A              
     e(  4 -  4) =    -75.95574  eV     1   --> A              
     e(  5 -  6) =    -75.34078  eV     2   -->   2 A              
     e(  7 -  8) =    -74.57233  eV     2   -->   2 A              
     e(  9 -  9) =     -9.17039  eV     1   --> A              
     e( 10 - 10) =     -6.82801  eV     1   --> A              
     e( 11 - 11) =     -4.20842  eV     1   --> A              
     e( 12 - 12) =     -4.11295  eV     1   --> A              
     e( 13 - 13) =     -3.69137  eV     1   --> A              
     e( 14 - 14) =     -3.03277  eV     1   --> A              
     e( 15 - 15) =     -2.92801  eV     1   --> A              

 **************************************************************************

 **************************************************************************

                    xk=(   0.21250,   0.36806,   0.00000  )

     Band symmetry, C_1 (1)     point group:

     e(  1 -  1) =   -121.52500  eV     1   --> A              
     e(  2 -  2) =   -120.65399  eV     1   --> A              
     e(  3 -  3) =    -76.88998  eV     1   --> A              
     e(  4 -  4) =    -75.95574  eV     1   --> A              
     e(  5 -  6) =    -75.34077  eV     2   -->   2 A              
     e(  7 -  8) =    -74.57232  eV     2   -->   2 A              
     e(  9 -  9) =     -9.19130  eV     1   --> A              
     e( 10 - 10) =     -6.83144  eV     1   --> A              
     e( 11 - 11) =     -4.20971  eV     1   --> A              
     e( 12 - 12) =     -4.10782  eV     1   --> A              
     e( 13 - 13) =     -3.71806  eV     1   --> A              
     e( 14 - 14) =     -3.02903  eV     1   --> A              
     e( 15 - 15) =     -2.92652  eV     1   --> A              

 **************************************************************************

 **************************************************************************

                    xk=(   0.20000,   0.34641,   0.00000  )

     Band symmetry, C_1 (1)     point group:

     e(  1 -  1) =   -121.52500  eV     1   --> A              
     e(  2 -  2) =   -120.65399  eV     1   --> A              
     e(  3 -  3) =    -76.88998  eV     1   --> A              
     e(  4 -  4) =    -75.95575  eV     1   --> A              
     e(  5 -  6) =    -75.34077  eV     2   -->   2 A              
     e(  7 -  8) =    -74.57232  eV     2   -->   2 A              
     e(  9 -  9) =     -9.21401  eV     1   --> A              
     e( 10 - 10) =     -6.83518  eV     1   --> A              
     e( 11 - 11) =     -4.21039  eV     1   --> A              
     e( 12 - 12) =     -4.10307  eV     1   --> A              
     e( 13 - 13) =     -3.74609  eV     1   --> A              
     e( 14 - 14) =     -3.02464  eV     1   --> A              
     e( 15 - 15) =     -2.92534  eV     1   --> A              

 **************************************************************************

 **************************************************************************

                    xk=(   0.18750,   0.32476,   0.00000  )

     Band symmetry, C_1 (1)     point group:

     e(  1 -  1) =   -121.52500  eV     1   --> A              
     e(  2 -  2) =   -120.65399  eV     1   --> A              
     e(  3 -  3) =    -76.88998  eV     1   --> A              
     e(  4 -  4) =    -75.95574  eV     1   --> A              
     e(  5 -  6) =    -75.34077  eV     2   -->   2 A              
     e(  7 -  8) =    -74.57231  eV     2   -->   2 A              
     e(  9 -  9) =     -9.23814  eV     1   --> A              
     e( 10 - 10) =     -6.83906  eV     1   --> A              
     e( 11 - 11) =     -4.21021  eV     1   --> A              
     e( 12 - 12) =     -4.09855  eV     1   --> A              
     e( 13 - 13) =     -3.77456  eV     1   --> A              
     e( 14 - 14) =     -3.01935  eV     1   --> A              
     e( 15 - 15) =     -2.92427  eV     1   --> A              

 **************************************************************************

 **************************************************************************

                    xk=(   0.17500,   0.30311,   0.00000  )

     Band symmetry, C_1 (1)     point group:

     e(  1 -  1) =   -121.52500  eV     1   --> A              
     e(  2 -  2) =   -120.65399  eV     1   --> A              
     e(  3 -  3) =    -76.88998  eV     1   --> A              
     e(  4 -  4) =    -75.95574  eV     1   --> A              
     e(  5 -  6) =    -75.34076  eV     2   -->   2 A              
     e(  7 -  8) =    -74.57231  eV     2   -->   2 A              
     e(  9 -  9) =     -9.26337  eV     1   --> A              
     e( 10 - 10) =     -6.84314  eV     1   --> A              
     e( 11 - 11) =     -4.20929  eV     1   --> A              
     e( 12 - 12) =     -4.09434  eV     1   --> A              
     e( 13 - 13) =     -3.80337  eV     1   --> A              
     e( 14 - 14) =     -3.01337  eV     1   --> A              
     e( 15 - 15) =     -2.92342  eV     1   --> A              

 **************************************************************************

 **************************************************************************

                    xk=(   0.16250,   0.28146,   0.00000  )

     Band symmetry, C_1 (1)     point group:

     e(  1 -  1) =   -121.52500  eV     1   --> A              
     e(  2 -  2) =   -120.65399  eV     1   --> A              
     e(  3 -  3) =    -76.88998  eV     1   --> A              
     e(  4 -  4) =    -75.95574  eV     1   --> A              
     e(  5 -  6) =    -75.34076  eV     2   -->   2 A              
     e(  7 -  8) =    -74.57230  eV     2   -->   2 A              
     e(  9 -  9) =     -9.28930  eV     1   --> A              
     e( 10 - 10) =     -6.84733  eV     1   --> A              
     e( 11 - 11) =     -4.20760  eV     1   --> A              
     e( 12 - 12) =     -4.09051  eV     1   --> A              
     e( 13 - 13) =     -3.83190  eV     1   --> A              
     e( 14 - 14) =     -3.00658  eV     1   --> A              
     e( 15 - 15) =     -2.92282  eV     1   --> A              

 **************************************************************************

 **************************************************************************

                    xk=(   0.15000,   0.25981,   0.00000  )

     Band symmetry, C_1 (1)     point group:

     e(  1 -  1) =   -121.52500  eV     1   --> A              
     e(  2 -  2) =   -120.65399  eV     1   --> A              
     e(  3 -  3) =    -76.88998  eV     1   --> A              
     e(  4 -  4) =    -75.95574  eV     1   --> A              
     e(  5 -  6) =    -75.34075  eV     2   -->   2 A              
     e(  7 -  8) =    -74.57229  eV     2   -->   2 A              
     e(  9 -  9) =     -9.31552  eV     1   --> A              
     e( 10 - 10) =     -6.85160  eV     1   --> A              
     e( 11 - 11) =     -4.20536  eV     1   --> A              
     e( 12 - 12) =     -4.08696  eV     1   --> A              
     e( 13 - 13) =     -3.85996  eV     1   --> A              
     e( 14 - 14) =     -2.99949  eV     1   --> A              
     e( 15 - 15) =     -2.92243  eV     1   --> A              

 **************************************************************************

 **************************************************************************

                    xk=(   0.13750,   0.23816,   0.00000  )

     Band symmetry, C_1 (1)     point group:

     e(  1 -  1) =   -121.52500  eV     1   --> A              
     e(  2 -  2) =   -120.65399  eV     1   --> A              
     e(  3 -  3) =    -76.88999  eV     1   --> A              
     e(  4 -  4) =    -75.95575  eV     1   --> A              
     e(  5 -  6) =    -75.34075  eV     2   -->   2 A              
     e(  7 -  8) =    -74.57228  eV     2   -->   2 A              
     e(  9 -  9) =     -9.34160  eV     1   --> A              
     e( 10 - 10) =     -6.85586  eV     1   --> A              
     e( 11 - 11) =     -4.20226  eV     1   --> A              
     e( 12 - 12) =     -4.08377  eV     1   --> A              
     e( 13 - 13) =     -3.88731  eV     1   --> A              
     e( 14 - 14) =     -2.99148  eV     1   --> A              
     e( 15 - 15) =     -2.92216  eV     1   --> A              

 **************************************************************************

 **************************************************************************

                    xk=(   0.12500,   0.21651,   0.00000  )

     Band symmetry, C_1 (1)     point group:

     e(  1 -  1) =   -121.52500  eV     1   --> A              
     e(  2 -  2) =   -120.65399  eV     1   --> A              
     e(  3 -  3) =    -76.88999  eV     1   --> A              
     e(  4 -  4) =    -75.95575  eV     1   --> A              
     e(  5 -  6) =    -75.34074  eV     2   -->   2 A              
     e(  7 -  8) =    -74.57228  eV     2   -->   2 A              
     e(  9 -  9) =     -9.36710  eV     1   --> A              
     e( 10 - 10) =     -6.86004  eV     1   --> A              
     e( 11 - 11) =     -4.19846  eV     1   --> A              
     e( 12 - 12) =     -4.08072  eV     1   --> A              
     e( 13 - 13) =     -3.91326  eV     1   --> A              
     e( 14 - 14) =     -2.98307  eV     1   --> A              
     e( 15 - 15) =     -2.92195  eV     1   --> A              

 **************************************************************************

 **************************************************************************

                    xk=(   0.11250,   0.19486,   0.00000  )

     Band symmetry, C_1 (1)     point group:

     e(  1 -  1) =   -121.52500  eV     1   --> A              
     e(  2 -  2) =   -120.65399  eV     1   --> A              
     e(  3 -  3) =    -76.88999  eV     1   --> A              
     e(  4 -  4) =    -75.95575  eV     1   --> A              
     e(  5 -  6) =    -75.34074  eV     2   -->   2 A              
     e(  7 -  8) =    -74.57227  eV     2   -->   2 A              
     e(  9 -  9) =     -9.39160  eV     1   --> A              
     e( 10 - 10) =     -6.86406  eV     1   --> A              
     e( 11 - 11) =     -4.19399  eV     1   --> A              
     e( 12 - 12) =     -4.07825  eV     1   --> A              
     e( 13 - 13) =     -3.93781  eV     1   --> A              
     e( 14 - 14) =     -2.97439  eV     1   --> A              
     e( 15 - 15) =     -2.92206  eV     1   --> A              

 **************************************************************************

 **************************************************************************

                    xk=(   0.10000,   0.17321,   0.00000  )

     Band symmetry, C_1 (1)     point group:

     e(  1 -  1) =   -121.52500  eV     1   --> A              
     e(  2 -  2) =   -120.65399  eV     1   --> A              
     e(  3 -  3) =    -76.88998  eV     1   --> A              
     e(  4 -  4) =    -75.95575  eV     1   --> A              
     e(  5 -  6) =    -75.34073  eV     2   -->   2 A              
     e(  7 -  8) =    -74.57226  eV     2   -->   2 A              
     e(  9 -  9) =     -9.41471  eV     1   --> A              
     e( 10 - 10) =     -6.86786  eV     1   --> A              
     e( 11 - 11) =     -4.18888  eV     1   --> A              
     e( 12 - 12) =     -4.07597  eV     1   --> A              
     e( 13 - 13) =     -3.96072  eV     1   --> A              
     e( 14 - 14) =     -2.96555  eV     1   --> A              
     e( 15 - 15) =     -2.92210  eV     1   --> A              

 **************************************************************************

 **************************************************************************

                    xk=(   0.08750,   0.15155,   0.00000  )

     Band symmetry, C_1 (1)     point group:

     e(  1 -  1) =   -121.52500  eV     1   --> A              
     e(  2 -  2) =   -120.65399  eV     1   --> A              
     e(  3 -  3) =    -76.88998  eV     1   --> A              
     e(  4 -  4) =    -75.95574  eV     1   --> A              
     e(  5 -  6) =    -75.34073  eV     2   -->   2 A              
     e(  7 -  8) =    -74.57225  eV     2   -->   2 A              
     e(  9 -  9) =     -9.43605  eV     1   --> A              
     e( 10 - 10) =     -6.87138  eV     1   --> A              
     e( 11 - 11) =     -4.18334  eV     1   --> A              
     e( 12 - 12) =     -4.07420  eV     1   --> A              
     e( 13 - 13) =     -3.98211  eV     1   --> A              
     e( 14 - 14) =     -2.95711  eV     1   --> A              
     e( 15 - 15) =     -2.92239  eV     1   --> A              

 **************************************************************************

 **************************************************************************

                    xk=(   0.07500,   0.12990,   0.00000  )

     Band symmetry, C_1 (1)     point group:

     e(  1 -  1) =   -121.52500  eV     1   --> A              
     e(  2 -  2) =   -120.65399  eV     1   --> A              
     e(  3 -  3) =    -76.88999  eV     1   --> A              
     e(  4 -  4) =    -75.95575  eV     1   --> A              
     e(  5 -  6) =    -75.34073  eV     2   -->   2 A              
     e(  7 -  8) =    -74.57225  eV     2   -->   2 A              
     e(  9 -  9) =     -9.45529  eV     1   --> A              
     e( 10 - 10) =     -6.87459  eV     1   --> A              
     e( 11 - 11) =     -4.17756  eV     1   --> A              
     e( 12 - 12) =     -4.07272  eV     1   --> A              
     e( 13 - 13) =     -4.00186  eV     1   --> A              
     e( 14 - 14) =     -2.94937  eV     1   --> A              
     e( 15 - 15) =     -2.92277  eV     1   --> A              

 **************************************************************************

 **************************************************************************

                    xk=(   0.06250,   0.10825,   0.00000  )

     Band symmetry, C_1 (1)     point group:

     e(  1 -  1) =   -121.52500  eV     1   --> A              
     e(  2 -  2) =   -120.65399  eV     1   --> A              
     e(  3 -  3) =    -76.88998  eV     1   --> A              
     e(  4 -  4) =    -75.95574  eV     1   --> A              
     e(  5 -  6) =    -75.34072  eV     2   -->   2 A              
     e(  7 -  8) =    -74.57224  eV     2   -->   2 A              
     e(  9 -  9) =     -9.47210  eV     1   --> A              
     e( 10 - 10) =     -6.87738  eV     1   --> A              
     e( 11 - 11) =     -4.17128  eV     1   --> A              
     e( 12 - 12) =     -4.07142  eV     1   --> A              
     e( 13 - 13) =     -4.01952  eV     1   --> A              
     e( 14 - 14) =     -2.94201  eV     1   --> A              
     e( 15 - 15) =     -2.92295  eV     1   --> A              

 **************************************************************************

 **************************************************************************

                    xk=(   0.05000,   0.08660,   0.00000  )

     Band symmetry, C_1 (1)     point group:

     e(  1 -  1) =   -121.52500  eV     1   --> A              
     e(  2 -  2) =   -120.65399  eV     1   --> A              
     e(  3 -  3) =    -76.88999  eV     1   --> A              
     e(  4 -  4) =    -75.95575  eV     1   --> A              
     e(  5 -  6) =    -75.34072  eV     2   -->   2 A              
     e(  7 -  8) =    -74.57224  eV     2   -->   2 A              
     e(  9 -  9) =     -9.48623  eV     1   --> A              
     e( 10 - 10) =     -6.87974  eV     1   --> A              
     e( 11 - 11) =     -4.16505  eV     1   --> A              
     e( 12 - 12) =     -4.07052  eV     1   --> A              
     e( 13 - 13) =     -4.03544  eV     1   --> A              
     e( 14 - 14) =     -2.93602  eV     1   --> A              
     e( 15 - 15) =     -2.92335  eV     1   --> A              

 **************************************************************************

 **************************************************************************

                    xk=(   0.03750,   0.06495,   0.00000  )

     Band symmetry, C_1 (1)     point group:

     e(  1 -  1) =   -121.52500  eV     1   --> A              
     e(  2 -  2) =   -120.65399  eV     1   --> A              
     e(  3 -  3) =    -76.88999  eV     1   --> A              
     e(  4 -  4) =    -75.95575  eV     1   --> A              
     e(  5 -  6) =    -75.34072  eV     2   -->   2 A              
     e(  7 -  8) =    -74.57224  eV     2   -->   2 A              
     e(  9 -  9) =     -9.49746  eV     1   --> A              
     e( 10 - 10) =     -6.88163  eV     1   --> A              
     e( 11 - 11) =     -4.15898  eV     1   --> A              
     e( 12 - 12) =     -4.06982  eV     1   --> A              
     e( 13 - 13) =     -4.04895  eV     1   --> A              
     e( 14 - 14) =     -2.93105  eV     1   --> A              
     e( 15 - 15) =     -2.92366  eV     1   --> A              

 **************************************************************************

 **************************************************************************

                    xk=(   0.02500,   0.04330,   0.00000  )

     Band symmetry, C_1 (1)     point group:

     e(  1 -  1) =   -121.52500  eV     1   --> A              
     e(  2 -  2) =   -120.65399  eV     1   --> A              
     e(  3 -  3) =    -76.88999  eV     1   --> A              
     e(  4 -  4) =    -75.95575  eV     1   --> A              
     e(  5 -  6) =    -75.34072  eV     2   -->   2 A              
     e(  7 -  8) =    -74.57224  eV     2   -->   2 A              
     e(  9 -  9) =     -9.50560  eV     1   --> A              
     e( 10 - 10) =     -6.88300  eV     1   --> A              
     e( 11 - 11) =     -4.15370  eV     1   --> A              
     e( 12 - 12) =     -4.06933  eV     1   --> A              
     e( 13 - 13) =     -4.05942  eV     1   --> A              
     e( 14 - 14) =     -2.92708  eV     1   --> A              
     e( 15 - 15) =     -2.92387  eV     1   --> A              

 **************************************************************************

 **************************************************************************

                    xk=(   0.01250,   0.02165,   0.00000  )

     Band symmetry, C_1 (1)     point group:

     e(  1 -  1) =   -121.52500  eV     1   --> A              
     e(  2 -  2) =   -120.65399  eV     1   --> A              
     e(  3 -  3) =    -76.88998  eV     1   --> A              
     e(  4 -  4) =    -75.95574  eV     1   --> A              
     e(  5 -  6) =    -75.34072  eV     2   -->   2 A              
     e(  7 -  8) =    -74.57224  eV     2   -->   2 A              
     e(  9 -  9) =     -9.51054  eV     1   --> A              
     e( 10 - 10) =     -6.88380  eV     1   --> A              
     e( 11 - 11) =     -4.14977  eV     1   --> A              
     e( 12 - 12) =     -4.06901  eV     1   --> A              
     e( 13 - 13) =     -4.06646  eV     1   --> A              
     e( 14 - 14) =     -2.92484  eV     1   --> A              
     e( 15 - 15) =     -2.92393  eV     1   --> A              

 **************************************************************************

 **************************************************************************

                    xk=(   0.00000,   0.00000,   0.00000  )

     point group C_3v (3m)  
     there are  3 classes
     the character table:

       E     2C3   3s_v 
A_1    1.00  1.00  1.00
A_2    1.00  1.00 -1.00
E      2.00 -1.00  0.00

     the symmetry operations in each class and the name of the first element:

     E        1
                                                                 
     2C3      2    3
                                                                 
     3s_v     4    5    6
                                                                 

     Band symmetry, C_3v (3m)   point group:

     e(  1 -  1) =   -121.52500  eV     1   --> A_1  L_1       
     e(  2 -  2) =   -120.65399  eV     1   --> A_1  L_1       
     e(  3 -  3) =    -76.88997  eV     1   --> A_1  L_1       
     e(  4 -  4) =    -75.95573  eV     1   --> A_1  L_1       
     e(  5 -  6) =    -75.34072  eV     2   --> E    L_3       
     e(  7 -  8) =    -74.57224  eV     2   --> E    L_3       
     e(  9 -  9) =     -9.51218  eV     1   --> A_1  L_1       
     e( 10 - 10) =     -6.88400  eV     1   --> A_1  L_1       
     e( 11 - 11) =     -4.14815  eV     1   --> A_1  L_1       
     e( 12 - 13) =     -4.06889  eV     2   --> E    L_3       
     e( 14 - 15) =     -2.92394  eV     2   --> E    L_3       

 **************************************************************************

 **************************************************************************

                    xk=(   0.01250,   0.02165,   0.00763  )

     point group C_1 (1)    
     there are  1 classes
     the character table:

       E    
A      1.00

     the symmetry operations in each class and the name of the first element:

     E        1
                                                                 

     Band symmetry, C_1 (1)     point group:

     e(  1 -  1) =   -121.52500  eV     1   --> A              
     e(  2 -  2) =   -120.65399  eV     1   --> A              
     e(  3 -  3) =    -76.88998  eV     1   --> A              
     e(  4 -  4) =    -75.95574  eV     1   --> A              
     e(  5 -  6) =    -75.34072  eV     2   -->   2 A              
     e(  7 -  8) =    -74.57224  eV     2   -->   2 A              
     e(  9 -  9) =     -9.51052  eV     1   --> A              
     e( 10 - 10) =     -6.88382  eV     1   --> A              
     e( 11 - 11) =     -4.14978  eV     1   --> A              
     e( 12 - 12) =     -4.06902  eV     1   --> A              
     e( 13 - 13) =     -4.06645  eV     1   --> A              
     e( 14 - 14) =     -2.92482  eV     1   --> A              
     e( 15 - 15) =     -2.92396  eV     1   --> A              

 **************************************************************************

 **************************************************************************

                    xk=(   0.02500,   0.04330,   0.01526  )

     Band symmetry, C_1 (1)     point group:

     e(  1 -  1) =   -121.52500  eV     1   --> A              
     e(  2 -  2) =   -120.65399  eV     1   --> A              
     e(  3 -  3) =    -76.88999  eV     1   --> A              
     e(  4 -  4) =    -75.95575  eV     1   --> A              
     e(  5 -  6) =    -75.34072  eV     2   -->   2 A              
     e(  7 -  8) =    -74.57224  eV     2   -->   2 A              
     e(  9 -  9) =     -9.50553  eV     1   --> A              
     e( 10 - 10) =     -6.88306  eV     1   --> A              
     e( 11 - 11) =     -4.15368  eV     1   --> A              
     e( 12 - 12) =     -4.06932  eV     1   --> A              
     e( 13 - 13) =     -4.05943  eV     1   --> A              
     e( 14 - 14) =     -2.92710  eV     1   --> A              
     e( 15 - 15) =     -2.92387  eV     1   --> A              

 **************************************************************************

 **************************************************************************

                    xk=(   0.03750,   0.06495,   0.02288  )

     Band symmetry, C_1 (1)     point group:

     e(  1 -  1) =   -121.52500  eV     1   --> A              
     e(  2 -  2) =   -120.65399  eV     1   --> A              
     e(  3 -  3) =    -76.88999  eV     1   --> A              
     e(  4 -  4) =    -75.95575  eV     1   --> A              
     e(  5 -  6) =    -75.34072  eV     2   -->   2 A              
     e(  7 -  8) =    -74.57224  eV     2   -->   2 A              
     e(  9 -  9) =     -9.49730  eV     1   --> A              
     e( 10 - 10) =     -6.88181  eV     1   --> A              
     e( 11 - 11) =     -4.15907  eV     1   --> A              
     e( 12 - 12) =     -4.06978  eV     1   --> A              
     e( 13 - 13) =     -4.04892  eV     1   --> A              
     e( 14 - 14) =     -2.93097  eV     1   --> A              
     e( 15 - 15) =     -2.92364  eV     1   --> A              

 **************************************************************************

 **************************************************************************

                    xk=(   0.05000,   0.08660,   0.03051  )

     Band symmetry, C_1 (1)     point group:

     e(  1 -  1) =   -121.52500  eV     1   --> A              
     e(  2 -  2) =   -120.65399  eV     1   --> A              
     e(  3 -  3) =    -76.88999  eV     1   --> A              
     e(  4 -  4) =    -75.95575  eV     1   --> A              
     e(  5 -  6) =    -75.34072  eV     2   -->   2 A              
     e(  7 -  8) =    -74.57224  eV     2   -->   2 A              
     e(  9 -  9) =     -9.48597  eV     1   --> A              
     e( 10 - 10) =     -6.88006  eV     1   --> A              
     e( 11 - 11) =     -4.16523  eV     1   --> A              
     e( 12 - 12) =     -4.07056  eV     1   --> A              
     e( 13 - 13) =     -4.03539  eV     1   --> A              
     e( 14 - 14) =     -2.93604  eV     1   --> A              
     e( 15 - 15) =     -2.92350  eV     1   --> A              

 **************************************************************************

 **************************************************************************

                    xk=(   0.06250,   0.10825,   0.03814  )

     Band symmetry, C_1 (1)     point group:

     e(  1 -  1) =   -121.52500  eV     1   --> A              
     e(  2 -  2) =   -120.65399  eV     1   --> A              
     e(  3 -  3) =    -76.88999  eV     1   --> A              
     e(  4 -  4) =    -75.95575  eV     1   --> A              
     e(  5 -  6) =    -75.34072  eV     2   -->   2 A              
     e(  7 -  8) =    -74.57224  eV     2   -->   2 A              
     e(  9 -  9) =     -9.47170  eV     1   --> A              
     e( 10 - 10) =     -6.87786  eV     1   --> A              
     e( 11 - 11) =     -4.17160  eV     1   --> A              
     e( 12 - 12) =     -4.07145  eV     1   --> A              
     e( 13 - 13) =     -4.01966  eV     1   --> A              
     e( 14 - 14) =     -2.94228  eV     1   --> A              
     e( 15 - 15) =     -2.92314  eV     1   --> A              

 **************************************************************************

 **************************************************************************

                    xk=(   0.07500,   0.12990,   0.04577  )

     Band symmetry, C_1 (1)     point group:

     e(  1 -  1) =   -121.52500  eV     1   --> A              
     e(  2 -  2) =   -120.65399  eV     1   --> A              
     e(  3 -  3) =    -76.88998  eV     1   --> A              
     e(  4 -  4) =    -75.95574  eV     1   --> A              
     e(  5 -  6) =    -75.34073  eV     2   -->   2 A              
     e(  7 -  8) =    -74.57225  eV     2   -->   2 A              
     e(  9 -  9) =     -9.45473  eV     1   --> A              
     e( 10 - 10) =     -6.87524  eV     1   --> A              
     e( 11 - 11) =     -4.17787  eV     1   --> A              
     e( 12 - 12) =     -4.07258  eV     1   --> A              
     e( 13 - 13) =     -4.00195  eV     1   --> A              
     e( 14 - 14) =     -2.94958  eV     1   --> A              
     e( 15 - 15) =     -2.92278  eV     1   --> A              

 **************************************************************************

 **************************************************************************

                    xk=(   0.08750,   0.15155,   0.05339  )

     Band symmetry, C_1 (1)     point group:

     e(  1 -  1) =   -121.52500  eV     1   --> A              
     e(  2 -  2) =   -120.65399  eV     1   --> A              
     e(  3 -  3) =    -76.88998  eV     1   --> A              
     e(  4 -  4) =    -75.95574  eV     1   --> A              
     e(  5 -  6) =    -75.34073  eV     2   -->   2 A              
     e(  7 -  8) =    -74.57226  eV     2   -->   2 A              
     e(  9 -  9) =     -9.43532  eV     1   --> A              
     e( 10 - 10) =     -6.87221  eV     1   --> A              
     e( 11 - 11) =     -4.18384  eV     1   --> A              
     e( 12 - 12) =     -4.07405  eV     1   --> A              
     e( 13 - 13) =     -3.98238  eV     1   --> A              
     e( 14 - 14) =     -2.95746  eV     1   --> A              
     e( 15 - 15) =     -2.92246  eV     1   --> A              

 **************************************************************************

 **************************************************************************

                    xk=(   0.10000,   0.17321,   0.06102  )

     Band symmetry, C_1 (1)     point group:

     e(  1 -  1) =   -121.52500  eV     1   --> A              
     e(  2 -  2) =   -120.65399  eV     1   --> A              
     e(  3 -  3) =    -76.88998  eV     1   --> A              
     e(  4 -  4) =    -75.95575  eV     1   --> A              
     e(  5 -  6) =    -75.34073  eV     2   -->   2 A              
     e(  7 -  8) =    -74.57226  eV     2   -->   2 A              
     e(  9 -  9) =     -9.41380  eV     1   --> A              
     e( 10 - 10) =     -6.86885  eV     1   --> A              
     e( 11 - 11) =     -4.18944  eV     1   --> A              
     e( 12 - 12) =     -4.07603  eV     1   --> A              
     e( 13 - 13) =     -3.96116  eV     1   --> A              
     e( 14 - 14) =     -2.96598  eV     1   --> A              
     e( 15 - 15) =     -2.92239  eV     1   --> A              

 **************************************************************************

 **************************************************************************

                    xk=(   0.11250,   0.19486,   0.06865  )

     Band symmetry, C_1 (1)     point group:

     e(  1 -  1) =   -121.52500  eV     1   --> A              
     e(  2 -  2) =   -120.65399  eV     1   --> A              
     e(  3 -  3) =    -76.88998  eV     1   --> A              
     e(  4 -  4) =    -75.95574  eV     1   --> A              
     e(  5 -  6) =    -75.34074  eV     2   -->   2 A              
     e(  7 -  8) =    -74.57227  eV     2   -->   2 A              
     e(  9 -  9) =     -9.39052  eV     1   --> A              
     e( 10 - 10) =     -6.86520  eV     1   --> A              
     e( 11 - 11) =     -4.19450  eV     1   --> A              
     e( 12 - 12) =     -4.07829  eV     1   --> A              
     e( 13 - 13) =     -3.93825  eV     1   --> A              
     e( 14 - 14) =     -2.97454  eV     1   --> A              
     e( 15 - 15) =     -2.92239  eV     1   --> A              

 **************************************************************************

 **************************************************************************

                    xk=(   0.12500,   0.21651,   0.07628  )

     Band symmetry, C_1 (1)     point group:

     e(  1 -  1) =   -121.52500  eV     1   --> A              
     e(  2 -  2) =   -120.65399  eV     1   --> A              
     e(  3 -  3) =    -76.88998  eV     1   --> A              
     e(  4 -  4) =    -75.95575  eV     1   --> A              
     e(  5 -  6) =    -75.34074  eV     2   -->   2 A              
     e(  7 -  8) =    -74.57228  eV     2   -->   2 A              
     e(  9 -  9) =     -9.36585  eV     1   --> A              
     e( 10 - 10) =     -6.86132  eV     1   --> A              
     e( 11 - 11) =     -4.19895  eV     1   --> A              
     e( 12 - 12) =     -4.08080  eV     1   --> A              
     e( 13 - 13) =     -3.91387  eV     1   --> A              
     e( 14 - 14) =     -2.98304  eV     1   --> A              
     e( 15 - 15) =     -2.92248  eV     1   --> A              

 **************************************************************************

 **************************************************************************

                    xk=(   0.13750,   0.23816,   0.08391  )

     Band symmetry, C_1 (1)     point group:

     e(  1 -  1) =   -121.52500  eV     1   --> A              
     e(  2 -  2) =   -120.65399  eV     1   --> A              
     e(  3 -  3) =    -76.88998  eV     1   --> A              
     e(  4 -  4) =    -75.95575  eV     1   --> A              
     e(  5 -  6) =    -75.34075  eV     2   -->   2 A              
     e(  7 -  8) =    -74.57228  eV     2   -->   2 A              
     e(  9 -  9) =     -9.34019  eV     1   --> A              
     e( 10 - 10) =     -6.85722  eV     1   --> A              
     e( 11 - 11) =     -4.20279  eV     1   --> A              
     e( 12 - 12) =     -4.08355  eV     1   --> A              
     e( 13 - 13) =     -3.88803  eV     1   --> A              
     e( 14 - 14) =     -2.99143  eV     1   --> A              
     e( 15 - 15) =     -2.92255  eV     1   --> A              

 **************************************************************************

 **************************************************************************

                    xk=(   0.15000,   0.25981,   0.09153  )

     Band symmetry, C_1 (1)     point group:

     e(  1 -  1) =   -121.52500  eV     1   --> A              
     e(  2 -  2) =   -120.65399  eV     1   --> A              
     e(  3 -  3) =    -76.88999  eV     1   --> A              
     e(  4 -  4) =    -75.95575  eV     1   --> A              
     e(  5 -  6) =    -75.34075  eV     2   -->   2 A              
     e(  7 -  8) =    -74.57229  eV     2   -->   2 A              
     e(  9 -  9) =     -9.31398  eV     1   --> A              
     e( 10 - 10) =     -6.85301  eV     1   --> A              
     e( 11 - 11) =     -4.20597  eV     1   --> A              
     e( 12 - 12) =     -4.08693  eV     1   --> A              
     e( 13 - 13) =     -3.86113  eV     1   --> A              
     e( 14 - 14) =     -2.99949  eV     1   --> A              
     e( 15 - 15) =     -2.92314  eV     1   --> A              

 **************************************************************************

 **************************************************************************

                    xk=(   0.16250,   0.28146,   0.09916  )

     Band symmetry, C_1 (1)     point group:

     e(  1 -  1) =   -121.52500  eV     1   --> A              
     e(  2 -  2) =   -120.65399  eV     1   --> A              
     e(  3 -  3) =    -76.88999  eV     1   --> A              
     e(  4 -  4) =    -75.95575  eV     1   --> A              
     e(  5 -  6) =    -75.34076  eV     2   -->   2 A              
     e(  7 -  8) =    -74.57230  eV     2   -->   2 A              
     e(  9 -  9) =     -9.28766  eV     1   --> A              
     e( 10 - 10) =     -6.84876  eV     1   --> A              
     e( 11 - 11) =     -4.20844  eV     1   --> A              
     e( 12 - 12) =     -4.09050  eV     1   --> A              
     e( 13 - 13) =     -3.83345  eV     1   --> A              
     e( 14 - 14) =     -3.00695  eV     1   --> A              
     e( 15 - 15) =     -2.92378  eV     1   --> A              

 **************************************************************************

 **************************************************************************

                    xk=(   0.17500,   0.30311,   0.10679  )

     Band symmetry, C_1 (1)     point group:

     e(  1 -  1) =   -121.52500  eV     1   --> A              
     e(  2 -  2) =   -120.65399  eV     1   --> A              
     e(  3 -  3) =    -76.88999  eV     1   --> A              
     e(  4 -  4) =    -75.95576  eV     1   --> A              
     e(  5 -  6) =    -75.34076  eV     2   -->   2 A              
     e(  7 -  8) =    -74.57231  eV     2   -->   2 A              
     e(  9 -  9) =     -9.26163  eV     1   --> A              
     e( 10 - 10) =     -6.84448  eV     1   --> A              
     e( 11 - 11) =     -4.21010  eV     1   --> A              
     e( 12 - 12) =     -4.09437  eV     1   --> A              
     e( 13 - 13) =     -3.80521  eV     1   --> A              
     e( 14 - 14) =     -3.01367  eV     1   --> A              
     e( 15 - 15) =     -2.92457  eV     1   --> A              

 **************************************************************************

 **************************************************************************

                    xk=(   0.18750,   0.32476,   0.11442  )

     Band symmetry, C_1 (1)     point group:

     e(  1 -  1) =   -121.52500  eV     1   --> A              
     e(  2 -  2) =   -120.65399  eV     1   --> A              
     e(  3 -  3) =    -76.88999  eV     1   --> A              
     e(  4 -  4) =    -75.95576  eV     1   --> A              
     e(  5 -  6) =    -75.34077  eV     2   -->   2 A              
     e(  7 -  8) =    -74.57231  eV     2   -->   2 A              
     e(  9 -  9) =     -9.23633  eV     1   --> A              
     e( 10 - 10) =     -6.84027  eV     1   --> A              
     e( 11 - 11) =     -4.21106  eV     1   --> A              
     e( 12 - 12) =     -4.09851  eV     1   --> A              
     e( 13 - 13) =     -3.77672  eV     1   --> A              
     e( 14 - 14) =     -3.01983  eV     1   --> A              
     e( 15 - 15) =     -2.92558  eV     1   --> A              

 **************************************************************************

 **************************************************************************

                    xk=(   0.20000,   0.34641,   0.12204  )

     Band symmetry, C_1 (1)     point group:

     e(  1 -  1) =   -121.52500  eV     1   --> A              
     e(  2 -  2) =   -120.65399  eV     1   --> A              
     e(  3 -  3) =    -76.88999  eV     1   --> A              
     e(  4 -  4) =    -75.95576  eV     1   --> A              
     e(  5 -  6) =    -75.34077  eV     2   -->   2 A              
     e(  7 -  8) =    -74.57232  eV     2   -->   2 A              
     e(  9 -  9) =     -9.21215  eV     1   --> A              
     e( 10 - 10) =     -6.83616  eV     1   --> A              
     e( 11 - 11) =     -4.21117  eV     1   --> A              
     e( 12 - 12) =     -4.10289  eV     1   --> A              
     e( 13 - 13) =     -3.74845  eV     1   --> A              
     e( 14 - 14) =     -3.02503  eV     1   --> A              
     e( 15 - 15) =     -2.92676  eV     1   --> A              

 **************************************************************************

 **************************************************************************

                    xk=(   0.21250,   0.36806,   0.12967  )

     Band symmetry, C_1 (1)     point group:

     e(  1 -  1) =   -121.52500  eV     1   --> A              
     e(  2 -  2) =   -120.65399  eV     1   --> A              
     e(  3 -  3) =    -76.88999  eV     1   --> A              
     e(  4 -  4) =    -75.95575  eV     1   --> A              
     e(  5 -  6) =    -75.34077  eV     2   -->   2 A              
     e(  7 -  8) =    -74.57233  eV     2   -->   2 A              
     e(  9 -  9) =     -9.18944  eV     1   --> A              
     e( 10 - 10) =     -6.83220  eV     1   --> A              
     e( 11 - 11) =     -4.21055  eV     1   --> A              
     e( 12 - 12) =     -4.10777  eV     1   --> A              
     e( 13 - 13) =     -3.72084  eV     1   --> A              
     e( 14 - 14) =     -3.02960  eV     1   --> A              
     e( 15 - 15) =     -2.92841  eV     1   --> A              

 **************************************************************************

 **************************************************************************

                    xk=(   0.22500,   0.38971,   0.13730  )

     Band symmetry, C_1 (1)     point group:

     e(  1 -  1) =   -121.52500  eV     1   --> A              
     e(  2 -  2) =   -120.65399  eV     1   --> A              
     e(  3 -  3) =    -76.88999  eV     1   --> A              
     e(  4 -  4) =    -75.95576  eV     1   --> A              
     e(  5 -  6) =    -75.34078  eV     2   -->   2 A              
     e(  7 -  8) =    -74.57233  eV     2   -->   2 A              
     e(  9 -  9) =     -9.16855  eV     1   --> A              
     e( 10 - 10) =     -6.82852  eV     1   --> A              
     e( 11 - 11) =     -4.20909  eV     1   --> A              
     e( 12 - 12) =     -4.11281  eV     1   --> A              
     e( 13 - 13) =     -3.69460  eV     1   --> A              
     e( 14 - 14) =     -3.03329  eV     1   --> A              
     e( 15 - 15) =     -2.93013  eV     1   --> A              

 **************************************************************************

 **************************************************************************

                    xk=(   0.23750,   0.41136,   0.14493  )

     Band symmetry, C_1 (1)     point group:

     e(  1 -  1) =   -121.52500  eV     1   --> A              
     e(  2 -  2) =   -120.65399  eV     1   --> A              
     e(  3 -  3) =    -76.88999  eV     1   --> A              
     e(  4 -  4) =    -75.95576  eV     1   --> A              
     e(  5 -  6) =    -75.34078  eV     2   -->   2 A              
     e(  7 -  8) =    -74.57233  eV     2   -->   2 A              
     e(  9 -  9) =     -9.14971  eV     1   --> A              
     e( 10 - 10) =     -6.82509  eV     1   --> A              
     e( 11 - 11) =     -4.20689  eV     1   --> A              
     e( 12 - 12) =     -4.11815  eV     1   --> A              
     e( 13 - 13) =     -3.66995  eV     1   --> A              
     e( 14 - 14) =     -3.03615  eV     1   --> A              
     e( 15 - 15) =     -2.93195  eV     1   --> A              

 **************************************************************************

 **************************************************************************

                    xk=(   0.25000,   0.43301,   0.15256  )

     Band symmetry, C_1 (1)     point group:

     e(  1 -  1) =   -121.52500  eV     1   --> A              
     e(  2 -  2) =   -120.65399  eV     1   --> A              
     e(  3 -  3) =    -76.88999  eV     1   --> A              
     e(  4 -  4) =    -75.95576  eV     1   --> A              
     e(  5 -  6) =    -75.34078  eV     2   -->   2 A              
     e(  7 -  8) =    -74.57233  eV     2   -->   2 A              
     e(  9 -  9) =     -9.13314  eV     1   --> A              
     e( 10 - 10) =     -6.82200  eV     1   --> A              
     e( 11 - 11) =     -4.20395  eV     1   --> A              
     e( 12 - 12) =     -4.12380  eV     1   --> A              
     e( 13 - 13) =     -3.64762  eV     1   --> A              
     e( 14 - 14) =     -3.03839  eV     1   --> A              
     e( 15 - 15) =     -2.93405  eV     1   --> A              

 **************************************************************************

 **************************************************************************

                    xk=(   0.26250,   0.45466,   0.16018  )

     Band symmetry, C_1 (1)     point group:

     e(  1 -  1) =   -121.52500  eV     1   --> A              
     e(  2 -  2) =   -120.65399  eV     1   --> A              
     e(  3 -  3) =    -76.88999  eV     1   --> A              
     e(  4 -  4) =    -75.95576  eV     1   --> A              
     e(  5 -  6) =    -75.34078  eV     2   -->   2 A              
     e(  7 -  8) =    -74.57233  eV     2   -->   2 A              
     e(  9 -  9) =     -9.11899  eV     1   --> A              
     e( 10 - 10) =     -6.81930  eV     1   --> A              
     e( 11 - 11) =     -4.20029  eV     1   --> A              
     e( 12 - 12) =     -4.12956  eV     1   --> A              
     e( 13 - 13) =     -3.62807  eV     1   --> A              
     e( 14 - 14) =     -3.03994  eV     1   --> A              
     e( 15 - 15) =     -2.93598  eV     1   --> A              

 **************************************************************************

 **************************************************************************

                    xk=(   0.27500,   0.47631,   0.16781  )

     Band symmetry, C_1 (1)     point group:

     e(  1 -  1) =   -121.52500  eV     1   --> A              
     e(  2 -  2) =   -120.65399  eV     1   --> A              
     e(  3 -  3) =    -76.88999  eV     1   --> A              
     e(  4 -  4) =    -75.95576  eV     1   --> A              
     e(  5 -  6) =    -75.34078  eV     2   -->   2 A              
     e(  7 -  8) =    -74.57233  eV     2   -->   2 A              
     e(  9 -  9) =     -9.10732  eV     1   --> A              
     e( 10 - 10) =     -6.81700  eV     1   --> A              
     e( 11 - 11) =     -4.19592  eV     1   --> A              
     e( 12 - 12) =     -4.13570  eV     1   --> A              
     e( 13 - 13) =     -3.61153  eV     1   --> A              
     e( 14 - 14) =     -3.04096  eV     1   --> A              
     e( 15 - 15) =     -2.93808  eV     1   --> A              

 **************************************************************************

 **************************************************************************

                    xk=(   0.28750,   0.49796,   0.17544  )

     Band symmetry, C_1 (1)     point group:

     e(  1 -  1) =   -121.52500  eV     1   --> A              
     e(  2 -  2) =   -120.65399  eV     1   --> A              
     e(  3 -  3) =    -76.88999  eV     1   --> A              
     e(  4 -  4) =    -75.95576  eV     1   --> A              
     e(  5 -  6) =    -75.34078  eV     2   -->   2 A              
     e(  7 -  8) =    -74.57233  eV     2   -->   2 A              
     e(  9 -  9) =     -9.09813  eV     1   --> A              
     e( 10 - 10) =     -6.81513  eV     1   --> A              
     e( 11 - 11) =     -4.19070  eV     1   --> A              
     e( 12 - 12) =     -4.14192  eV     1   --> A              
     e( 13 - 13) =     -3.59821  eV     1   --> A              
     e( 14 - 14) =     -3.04128  eV     1   --> A              
     e( 15 - 15) =     -2.93976  eV     1   --> A              

 **************************************************************************

 **************************************************************************

                    xk=(   0.30000,   0.51962,   0.18307  )

     Band symmetry, C_1 (1)     point group:

     e(  1 -  1) =   -121.52500  eV     1   --> A              
     e(  2 -  2) =   -120.65399  eV     1   --> A              
     e(  3 -  3) =    -76.88999  eV     1   --> A              
     e(  4 -  4) =    -75.95576  eV     1   --> A              
     e(  5 -  6) =    -75.34078  eV     2   -->   2 A              
     e(  7 -  8) =    -74.57233  eV     2   -->   2 A              
     e(  9 -  9) =     -9.09137  eV     1   --> A              
     e( 10 - 10) =     -6.81369  eV     1   --> A              
     e( 11 - 11) =     -4.18508  eV     1   --> A              
     e( 12 - 12) =     -4.14854  eV     1   --> A              
     e( 13 - 13) =     -3.58837  eV     1   --> A              
     e( 14 - 14) =     -3.04154  eV     1   --> A              
     e( 15 - 15) =     -2.94145  eV     1   --> A              

 **************************************************************************

 **************************************************************************

                    xk=(   0.31250,   0.54127,   0.19069  )

     Band symmetry, C_1 (1)     point group:

     e(  1 -  1) =   -121.52500  eV     1   --> A              
     e(  2 -  2) =   -120.65399  eV     1   --> A              
     e(  3 -  3) =    -76.88999  eV     1   --> A              
     e(  4 -  4) =    -75.95576  eV     1   --> A              
     e(  5 -  6) =    -75.34078  eV     2   -->   2 A              
     e(  7 -  8) =    -74.57233  eV     2   -->   2 A              
     e(  9 -  9) =     -9.08692  eV     1   --> A              
     e( 10 - 10) =     -6.81270  eV     1   --> A              
     e( 11 - 11) =     -4.17878  eV     1   --> A              
     e( 12 - 12) =     -4.15533  eV     1   --> A              
     e( 13 - 13) =     -3.58193  eV     1   --> A              
     e( 14 - 14) =     -3.04146  eV     1   --> A              
     e( 15 - 15) =     -2.94268  eV     1   --> A              

 **************************************************************************

 **************************************************************************

                    xk=(   0.32500,   0.56292,   0.19832  )

     Band symmetry, C_1 (1)     point group:

     e(  1 -  1) =   -121.52500  eV     1   --> A              
     e(  2 -  2) =   -120.65399  eV     1   --> A              
     e(  3 -  3) =    -76.88999  eV     1   --> A              
     e(  4 -  4) =    -75.95576  eV     1   --> A              
     e(  5 -  6) =    -75.34077  eV     2   -->   2 A              
     e(  7 -  8) =    -74.57233  eV     2   -->   2 A              
     e(  9 -  9) =     -9.08460  eV     1   --> A              
     e( 10 - 10) =     -6.81212  eV     1   --> A              
     e( 11 - 11) =     -4.17196  eV     1   --> A              
     e( 12 - 12) =     -4.16226  eV     1   --> A              
     e( 13 - 13) =     -3.57859  eV     1   --> A              
     e( 14 - 14) =     -3.04129  eV     1   --> A              
     e( 15 - 15) =     -2.94344  eV     1   --> A              

 **************************************************************************

 **************************************************************************

                    xk=(   0.33750,   0.58457,   0.20595  )

     Band symmetry, C_1 (1)     point group:

     e(  1 -  1) =   -121.52500  eV     1   --> A              
     e(  2 -  2) =   -120.65399  eV     1   --> A              
     e(  3 -  3) =    -76.88999  eV     1   --> A              
     e(  4 -  4) =    -75.95575  eV     1   --> A              
     e(  5 -  6) =    -75.34077  eV     2   -->   2 A              
     e(  7 -  8) =    -74.57233  eV     2   -->   2 A              
     e(  9 -  9) =     -9.08421  eV     1   --> A              
     e( 10 - 10) =     -6.81196  eV     1   --> A              
     e( 11 - 11) =     -4.16957  eV     1   --> A              
     e( 12 - 12) =     -4.16441  eV     1   --> A              
     e( 13 - 13) =     -3.57837  eV     1   --> A              
     e( 14 - 14) =     -3.04112  eV     1   --> A              
     e( 15 - 15) =     -2.94355  eV     1   --> A              

 **************************************************************************

 **************************************************************************

                    xk=(   0.35000,   0.60622,   0.21358  )

     Band symmetry, C_1 (1)     point group:

     e(  1 -  1) =   -121.52500  eV     1   --> A              
     e(  2 -  2) =   -120.65399  eV     1   --> A              
     e(  3 -  3) =    -76.88999  eV     1   --> A              
     e(  4 -  4) =    -75.95575  eV     1   --> A              
     e(  5 -  6) =    -75.34077  eV     2   -->   2 A              
     e(  7 -  8) =    -74.57233  eV     2   -->   2 A              
     e(  9 -  9) =     -9.08548  eV     1   --> A              
     e( 10 - 10) =     -6.81220  eV     1   --> A              
     e( 11 - 11) =     -4.17677  eV     1   --> A              
     e( 12 - 12) =     -4.15711  eV     1   --> A              
     e( 13 - 13) =     -3.58089  eV     1   --> A              
     e( 14 - 14) =     -3.04135  eV     1   --> A              
     e( 15 - 15) =     -2.94333  eV     1   --> A              

 **************************************************************************

 **************************************************************************

                    xk=(   0.36250,   0.62787,   0.22121  )

     Band symmetry, C_1 (1)     point group:

     e(  1 -  1) =   -121.52500  eV     1   --> A              
     e(  2 -  2) =   -120.65399  eV     1   --> A              
     e(  3 -  3) =    -76.88999  eV     1   --> A              
     e(  4 -  4) =    -75.95575  eV     1   --> A              
     e(  5 -  6) =    -75.34078  eV     2   -->   2 A              
     e(  7 -  8) =    -74.57233  eV     2   -->   2 A              
     e(  9 -  9) =     -9.08815  eV     1   --> A              
     e( 10 - 10) =     -6.81277  eV     1   --> A              
[...]
     e(  9 -  9) =     -9.14625  eV     1   --> A              
     e( 10 - 10) =     -6.82458  eV     1   --> A              
     e( 11 - 11) =     -4.21478  eV     1   --> A              
     e( 12 - 12) =     -4.11010  eV     1   --> A              
     e( 13 - 13) =     -3.66386  eV     1   --> A              
     e( 14 - 14) =     -3.04004  eV     1   --> A              
     e( 15 - 15) =     -2.92684  eV     1   --> A              

 **************************************************************************

 **************************************************************************

                    xk=(   0.30000,   0.34641,   0.09153  )

     Band symmetry, C_1 (1)     point group:

     e(  1 -  1) =   -121.52500  eV     1   --> A              
     e(  2 -  2) =   -120.65399  eV     1   --> A              
     e(  3 -  3) =    -76.88999  eV     1   --> A              
     e(  4 -  4) =    -75.95575  eV     1   --> A              
     e(  5 -  6) =    -75.34078  eV     2   -->   2 A              
     e(  7 -  8) =    -74.57233  eV     2   -->   2 A              
     e(  9 -  9) =     -9.16573  eV     1   --> A              
     e( 10 - 10) =     -6.82790  eV     1   --> A              
     e( 11 - 11) =     -4.21568  eV     1   --> A              
     e( 12 - 12) =     -4.10595  eV     1   --> A              
     e( 13 - 13) =     -3.68953  eV     1   --> A              
     e( 14 - 14) =     -3.03678  eV     1   --> A              
     e( 15 - 15) =     -2.92551  eV     1   --> A              

 **************************************************************************

 **************************************************************************

                    xk=(   0.28125,   0.32476,   0.08581  )

     Band symmetry, C_1 (1)     point group:

     e(  1 -  1) =   -121.52500  eV     1   --> A              
     e(  2 -  2) =   -120.65399  eV     1   --> A              
     e(  3 -  3) =    -76.88999  eV     1   --> A              
     e(  4 -  4) =    -75.95575  eV     1   --> A              
     e(  5 -  6) =    -75.34078  eV     2   -->   2 A              
     e(  7 -  8) =    -74.57233  eV     2   -->   2 A              
     e(  9 -  9) =     -9.18827  eV     1   --> A              
     e( 10 - 10) =     -6.83167  eV     1   --> A              
     e( 11 - 11) =     -4.21584  eV     1   --> A              
     e( 12 - 12) =     -4.10178  eV     1   --> A              
     e( 13 - 13) =     -3.71810  eV     1   --> A              
     e( 14 - 14) =     -3.03245  eV     1   --> A              
     e( 15 - 15) =     -2.92434  eV     1   --> A              

 **************************************************************************

 **************************************************************************

                    xk=(   0.26250,   0.30311,   0.08009  )

     Band symmetry, C_1 (1)     point group:

     e(  1 -  1) =   -121.52500  eV     1   --> A              
     e(  2 -  2) =   -120.65399  eV     1   --> A              
     e(  3 -  3) =    -76.88998  eV     1   --> A              
     e(  4 -  4) =    -75.95575  eV     1   --> A              
     e(  5 -  6) =    -75.34077  eV     2   -->   2 A              
     e(  7 -  8) =    -74.57232  eV     2   -->   2 A              
     e(  9 -  9) =     -9.21345  eV     1   --> A              
     e( 10 - 10) =     -6.83584  eV     1   --> A              
     e( 11 - 11) =     -4.21522  eV     1   --> A              
     e( 12 - 12) =     -4.09771  eV     1   --> A              
     e( 13 - 13) =     -3.74876  eV     1   --> A              
     e( 14 - 14) =     -3.02700  eV     1   --> A              
     e( 15 - 15) =     -2.92336  eV     1   --> A              

 **************************************************************************

 **************************************************************************

                    xk=(   0.24375,   0.28146,   0.07437  )

     Band symmetry, C_1 (1)     point group:

     e(  1 -  1) =   -121.52500  eV     1   --> A              
     e(  2 -  2) =   -120.65399  eV     1   --> A              
     e(  3 -  3) =    -76.88999  eV     1   --> A              
     e(  4 -  4) =    -75.95575  eV     1   --> A              
     e(  5 -  6) =    -75.34077  eV     2   -->   2 A              
     e(  7 -  8) =    -74.57232  eV     2   -->   2 A              
     e(  9 -  9) =     -9.24075  eV     1   --> A              
     e( 10 - 10) =     -6.84031  eV     1   --> A              
     e( 11 - 11) =     -4.21396  eV     1   --> A              
     e( 12 - 12) =     -4.09385  eV     1   --> A              
     e( 13 - 13) =     -3.78068  eV     1   --> A              
     e( 14 - 14) =     -3.02072  eV     1   --> A              
     e( 15 - 15) =     -2.92262  eV     1   --> A              

 **************************************************************************

 **************************************************************************

                    xk=(   0.22500,   0.25981,   0.06865  )

     Band symmetry, C_1 (1)     point group:

     e(  1 -  1) =   -121.52500  eV     1   --> A              
     e(  2 -  2) =   -120.65399  eV     1   --> A              
     e(  3 -  3) =    -76.88998  eV     1   --> A              
     e(  4 -  4) =    -75.95575  eV     1   --> A              
     e(  5 -  6) =    -75.34076  eV     2   -->   2 A              
     e(  7 -  8) =    -74.57231  eV     2   -->   2 A              
     e(  9 -  9) =     -9.26957  eV     1   --> A              
     e( 10 - 10) =     -6.84498  eV     1   --> A              
     e( 11 - 11) =     -4.21180  eV     1   --> A              
     e( 12 - 12) =     -4.09016  eV     1   --> A              
     e( 13 - 13) =     -3.81289  eV     1   --> A              
     e( 14 - 14) =     -3.01327  eV     1   --> A              
     e( 15 - 15) =     -2.92212  eV     1   --> A              

 **************************************************************************

 **************************************************************************

                    xk=(   0.20625,   0.23816,   0.06293  )

     Band symmetry, C_1 (1)     point group:

     e(  1 -  1) =   -121.52500  eV     1   --> A              
     e(  2 -  2) =   -120.65399  eV     1   --> A              
     e(  3 -  3) =    -76.88998  eV     1   --> A              
     e(  4 -  4) =    -75.95575  eV     1   --> A              
     e(  5 -  6) =    -75.34076  eV     2   -->   2 A              
     e(  7 -  8) =    -74.57230  eV     2   -->   2 A              
     e(  9 -  9) =     -9.29929  eV     1   --> A              
     e( 10 - 10) =     -6.84978  eV     1   --> A              
     e( 11 - 11) =     -4.20880  eV     1   --> A              
     e( 12 - 12) =     -4.08659  eV     1   --> A              
     e( 13 - 13) =     -3.84492  eV     1   --> A              
     e( 14 - 14) =     -3.00488  eV     1   --> A              
     e( 15 - 15) =     -2.92163  eV     1   --> A              

 **************************************************************************

 **************************************************************************

                    xk=(   0.18750,   0.21651,   0.05721  )

     Band symmetry, C_1 (1)     point group:

     e(  1 -  1) =   -121.52500  eV     1   --> A              
     e(  2 -  2) =   -120.65399  eV     1   --> A              
     e(  3 -  3) =    -76.88998  eV     1   --> A              
     e(  4 -  4) =    -75.95575  eV     1   --> A              
     e(  5 -  6) =    -75.34075  eV     2   -->   2 A              
     e(  7 -  8) =    -74.57229  eV     2   -->   2 A              
     e(  9 -  9) =     -9.32925  eV     1   --> A              
     e( 10 - 10) =     -6.85459  eV     1   --> A              
     e( 11 - 11) =     -4.20512  eV     1   --> A              
     e( 12 - 12) =     -4.08338  eV     1   --> A              
     e( 13 - 13) =     -3.87614  eV     1   --> A              
     e( 14 - 14) =     -2.99589  eV     1   --> A              
     e( 15 - 15) =     -2.92159  eV     1   --> A              

 **************************************************************************

 **************************************************************************

                    xk=(   0.16875,   0.19486,   0.05149  )

     Band symmetry, C_1 (1)     point group:

     e(  1 -  1) =   -121.52500  eV     1   --> A              
     e(  2 -  2) =   -120.65399  eV     1   --> A              
     e(  3 -  3) =    -76.88998  eV     1   --> A              
     e(  4 -  4) =    -75.95575  eV     1   --> A              
     e(  5 -  6) =    -75.34075  eV     2   -->   2 A              
     e(  7 -  8) =    -74.57228  eV     2   -->   2 A              
     e(  9 -  9) =     -9.35876  eV     1   --> A              
     e( 10 - 10) =     -6.85935  eV     1   --> A              
     e( 11 - 11) =     -4.20068  eV     1   --> A              
     e( 12 - 12) =     -4.08046  eV     1   --> A              
     e( 13 - 13) =     -3.90608  eV     1   --> A              
     e( 14 - 14) =     -2.98636  eV     1   --> A              
     e( 15 - 15) =     -2.92156  eV     1   --> A              

 **************************************************************************

 **************************************************************************

                    xk=(   0.15000,   0.17321,   0.04577  )

     Band symmetry, C_1 (1)     point group:

     e(  1 -  1) =   -121.52500  eV     1   --> A              
     e(  2 -  2) =   -120.65399  eV     1   --> A              
     e(  3 -  3) =    -76.88998  eV     1   --> A              
     e(  4 -  4) =    -75.95575  eV     1   --> A              
     e(  5 -  6) =    -75.34074  eV     2   -->   2 A              
     e(  7 -  8) =    -74.57227  eV     2   -->   2 A              
     e(  9 -  9) =     -9.38719  eV     1   --> A              
     e( 10 - 10) =     -6.86391  eV     1   --> A              
     e( 11 - 11) =     -4.19533  eV     1   --> A              
     e( 12 - 12) =     -4.07785  eV     1   --> A              
     e( 13 - 13) =     -3.93434  eV     1   --> A              
     e( 14 - 14) =     -2.97613  eV     1   --> A              
     e( 15 - 15) =     -2.92172  eV     1   --> A              

 **************************************************************************

 **************************************************************************

                    xk=(   0.13125,   0.15155,   0.04005  )

     Band symmetry, C_1 (1)     point group:

     e(  1 -  1) =   -121.52500  eV     1   --> A              
     e(  2 -  2) =   -120.65399  eV     1   --> A              
     e(  3 -  3) =    -76.88998  eV     1   --> A              
     e(  4 -  4) =    -75.95574  eV     1   --> A              
     e(  5 -  6) =    -75.34073  eV     2   -->   2 A              
     e(  7 -  8) =    -74.57226  eV     2   -->   2 A              
     e(  9 -  9) =     -9.41389  eV     1   --> A              
     e( 10 - 10) =     -6.86820  eV     1   --> A              
     e( 11 - 11) =     -4.18942  eV     1   --> A              
     e( 12 - 12) =     -4.07560  eV     1   --> A              
     e( 13 - 13) =     -3.96067  eV     1   --> A              
     e( 14 - 14) =     -2.96609  eV     1   --> A              
     e( 15 - 15) =     -2.92195  eV     1   --> A              

 **************************************************************************

 **************************************************************************

                    xk=(   0.11250,   0.12990,   0.03433  )

     Band symmetry, C_1 (1)     point group:

     e(  1 -  1) =   -121.52500  eV     1   --> A              
     e(  2 -  2) =   -120.65399  eV     1   --> A              
     e(  3 -  3) =    -76.88998  eV     1   --> A              
     e(  4 -  4) =    -75.95574  eV     1   --> A              
     e(  5 -  6) =    -75.34073  eV     2   -->   2 A              
     e(  7 -  8) =    -74.57226  eV     2   -->   2 A              
     e(  9 -  9) =     -9.43830  eV     1   --> A              
     e( 10 - 10) =     -6.87215  eV     1   --> A              
     e( 11 - 11) =     -4.18298  eV     1   --> A              
     e( 12 - 12) =     -4.07370  eV     1   --> A              
     e( 13 - 13) =     -3.98497  eV     1   --> A              
     e( 14 - 14) =     -2.95644  eV     1   --> A              
     e( 15 - 15) =     -2.92232  eV     1   --> A              

 **************************************************************************

 **************************************************************************

                    xk=(   0.09375,   0.10825,   0.02860  )

     Band symmetry, C_1 (1)     point group:

     e(  1 -  1) =   -121.52500  eV     1   --> A              
     e(  2 -  2) =   -120.65399  eV     1   --> A              
     e(  3 -  3) =    -76.88998  eV     1   --> A              
     e(  4 -  4) =    -75.95574  eV     1   --> A              
     e(  5 -  6) =    -75.34073  eV     2   -->   2 A              
     e(  7 -  8) =    -74.57225  eV     2   -->   2 A              
     e(  9 -  9) =     -9.45989  eV     1   --> A              
     e( 10 - 10) =     -6.87563  eV     1   --> A              
     e( 11 - 11) =     -4.17601  eV     1   --> A              
     e( 12 - 12) =     -4.07216  eV     1   --> A              
     e( 13 - 13) =     -4.00693  eV     1   --> A              
     e( 14 - 14) =     -2.94739  eV     1   --> A              
     e( 15 - 15) =     -2.92271  eV     1   --> A              

 **************************************************************************

 **************************************************************************

                    xk=(   0.07500,   0.08660,   0.02288  )

     Band symmetry, C_1 (1)     point group:

     e(  1 -  1) =   -121.52500  eV     1   --> A              
     e(  2 -  2) =   -120.65399  eV     1   --> A              
     e(  3 -  3) =    -76.88998  eV     1   --> A              
     e(  4 -  4) =    -75.95574  eV     1   --> A              
     e(  5 -  6) =    -75.34072  eV     2   -->   2 A              
     e(  7 -  8) =    -74.57224  eV     2   -->   2 A              
     e(  9 -  9) =     -9.47819  eV     1   --> A              
     e( 10 - 10) =     -6.87859  eV     1   --> A              
     e( 11 - 11) =     -4.16877  eV     1   --> A              
     e( 12 - 12) =     -4.07098  eV     1   --> A              
     e( 13 - 13) =     -4.02645  eV     1   --> A              
     e( 14 - 14) =     -2.93943  eV     1   --> A              
     e( 15 - 15) =     -2.92311  eV     1   --> A              

 **************************************************************************

 **************************************************************************

                    xk=(   0.05625,   0.06495,   0.01716  )

     Band symmetry, C_1 (1)     point group:

     e(  1 -  1) =   -121.52500  eV     1   --> A              
     e(  2 -  2) =   -120.65399  eV     1   --> A              
     e(  3 -  3) =    -76.88999  eV     1   --> A              
     e(  4 -  4) =    -75.95575  eV     1   --> A              
     e(  5 -  6) =    -75.34072  eV     2   -->   2 A              
     e(  7 -  8) =    -74.57224  eV     2   -->   2 A              
     e(  9 -  9) =     -9.49284  eV     1   --> A              
     e( 10 - 10) =     -6.88096  eV     1   --> A              
     e( 11 - 11) =     -4.16162  eV     1   --> A              
     e( 12 - 12) =     -4.07010  eV     1   --> A              
     e( 13 - 13) =     -4.04339  eV     1   --> A              
     e( 14 - 14) =     -2.93308  eV     1   --> A              
     e( 15 - 15) =     -2.92357  eV     1   --> A              

 **************************************************************************

 **************************************************************************

                    xk=(   0.03750,   0.04330,   0.01144  )

     Band symmetry, C_1 (1)     point group:

     e(  1 -  1) =   -121.52500  eV     1   --> A              
     e(  2 -  2) =   -120.65399  eV     1   --> A              
     e(  3 -  3) =    -76.88999  eV     1   --> A              
     e(  4 -  4) =    -75.95575  eV     1   --> A              
     e(  5 -  6) =    -75.34072  eV     2   -->   2 A              
     e(  7 -  8) =    -74.57224  eV     2   -->   2 A              
     e(  9 -  9) =     -9.50352  eV     1   --> A              
     e( 10 - 10) =     -6.88268  eV     1   --> A              
     e( 11 - 11) =     -4.15508  eV     1   --> A              
     e( 12 - 12) =     -4.06942  eV     1   --> A              
     e( 13 - 13) =     -4.05666  eV     1   --> A              
     e( 14 - 14) =     -2.92804  eV     1   --> A              
     e( 15 - 15) =     -2.92378  eV     1   --> A              

 **************************************************************************

 **************************************************************************

                    xk=(   0.01875,   0.02165,   0.00572  )

     Band symmetry, C_1 (1)     point group:

     e(  1 -  1) =   -121.52500  eV     1   --> A              
     e(  2 -  2) =   -120.65399  eV     1   --> A              
     e(  3 -  3) =    -76.88999  eV     1   --> A              
     e(  4 -  4) =    -75.95575  eV     1   --> A              
     e(  5 -  6) =    -75.34072  eV     2   -->   2 A              
     e(  7 -  8) =    -74.57224  eV     2   -->   2 A              
     e(  9 -  9) =     -9.51002  eV     1   --> A              
     e( 10 - 10) =     -6.88374  eV     1   --> A              
     e( 11 - 11) =     -4.15026  eV     1   --> A              
     e( 12 - 12) =     -4.06906  eV     1   --> A              
     e( 13 - 13) =     -4.06570  eV     1   --> A              
     e( 14 - 14) =     -2.92508  eV     1   --> A              
     e( 15 - 15) =     -2.92397  eV     1   --> A              

 **************************************************************************

 **************************************************************************

                    xk=(   0.00000,   0.00000,   0.00000  )

     point group C_3v (3m)  
     there are  3 classes
     the character table:

       E     2C3   3s_v 
A_1    1.00  1.00  1.00
A_2    1.00  1.00 -1.00
E      2.00 -1.00  0.00

     the symmetry operations in each class and the name of the first element:

     E        1
                                                                 
     2C3      2    3
                                                                 
     3s_v     4    5    6
                                                                 

     Band symmetry, C_3v (3m)   point group:

     e(  1 -  1) =   -121.52500  eV     1   --> A_1  L_1       
     e(  2 -  2) =   -120.65399  eV     1   --> A_1  L_1       
     e(  3 -  3) =    -76.88997  eV     1   --> A_1  L_1       
     e(  4 -  4) =    -75.95573  eV     1   --> A_1  L_1       
     e(  5 -  6) =    -75.34072  eV     2   --> E    L_3       
     e(  7 -  8) =    -74.57224  eV     2   --> E    L_3       
     e(  9 -  9) =     -9.51218  eV     1   --> A_1  L_1       
     e( 10 - 10) =     -6.88400  eV     1   --> A_1  L_1       
     e( 11 - 11) =     -4.14815  eV     1   --> A_1  L_1       
     e( 12 - 13) =     -4.06889  eV     2   --> E    L_3       
     e( 14 - 15) =     -2.92394  eV     2   --> E    L_3       

 **************************************************************************

     BANDS        :      4.39s CPU      4.69s WALL


   This run was terminated on:  12:12:25  10Jun2024            

=------------------------------------------------------------------------------=
   JOB DONE.
=------------------------------------------------------------------------------=
