
     Program PWSCF v.7.2 starts on 10Jun2024 at 12: 3:18 

     This program is part of the open-source Quantum ESPRESSO suite
     for quantum simulation of materials; please cite
         "P. Giannozzi et al., J. Phys.:Condens. Matter 21 395502 (2009);
         "P. Giannozzi et al., J. Phys.:Condens. Matter 29 465901 (2017);
         "P. Giannozzi et al., J. Chem. Phys. 152 154105 (2020);
          URL http://www.quantum-espresso.org", 
     in publications or presentations arising from this work. More details at
     http://www.quantum-espresso.org/quote

     Serial version
     8336 MiB available memory on the printing compute node when the environment starts

     Waiting for input...
     Reading input from standard input

     Current dimensions of program PWSCF are:
     Max number of different atomic species (ntypx) = 10
     Max number of k-points (npk) =  40000
     Max angular momentum in pseudopotentials (lmaxx) =  4

     Atomic positions and unit cell read from directory:
     ./SCRATCH/zns_w.save/



     G-vector sticks info
     --------------------
     sticks:   dense  smooth     PW     G-vecs:    dense   smooth      PW
     Sum         859     859    283                34121    34121    6339

     Using Slab Decomposition



     bravais-lattice index     =            4
     lattice parameter (alat)  =       7.2639  a.u.
     unit-cell volume          =     543.9373 (a.u.)^3
     number of atoms/cell      =            4
     number of atomic types    =            2
     number of electrons       =        52.00
     number of Kohn-Sham states=           15
     kinetic-energy cutoff     =      60.0000  Ry
     charge density cutoff     =     240.0000  Ry
     Exchange-correlation= PBE
                           (   1   4   3   4   0   0   0)

     celldm(1)=   7.263887  celldm(2)=   0.000000  celldm(3)=   1.638743
     celldm(4)=   0.000000  celldm(5)=   0.000000  celldm(6)=   0.000000

     crystal axes: (cart. coord. in units of alat)
               a(1) = (   1.000000   0.000000   0.000000 )  
               a(2) = (  -0.500000   0.866025   0.000000 )  
               a(3) = (   0.000000   0.000000   1.638743 )  

     reciprocal axes: (cart. coord. in units 2 pi/alat)
               b(1) = (  1.000000  0.577350 -0.000000 )  
               b(2) = (  0.000000  1.154701  0.000000 )  
               b(3) = (  0.000000 -0.000000  0.610224 )  


     PseudoPot. # 1 for Zn read from file:
     /home/paolo/project_labqsm/pseudopotentials/Zn_ONCV_PBE-1.2.upf
     MD5 check sum: 732f41c0cd6489a4b50a33b4ec99a2d3
     Pseudo is Norm-conserving, Zval = 20.0
     Generated using ONCVPSP code by D. R. Hamann
     Using radial grid of  602 points,  6 beta functions with: 
                l(1) =   0
                l(2) =   0
                l(3) =   1
                l(4) =   1
                l(5) =   2
                l(6) =   2

     PseudoPot. # 2 for S  read from file:
     /home/paolo/project_labqsm/pseudopotentials/S_ONCV_PBE-1.2.upf
     MD5 check sum: f9d020296ee6110346977bfd66d424f6
     Pseudo is Norm-conserving, Zval =  6.0
     Generated using ONCVPSP code by D. R. Hamann
     Using radial grid of  602 points,  4 beta functions with: 
                l(1) =   0
                l(2) =   0
                l(3) =   1
                l(4) =   1

     atomic species   valence    mass     pseudopotential
        Zn            20.00    65.38000     Zn( 1.00)
        S              6.00    32.06000     S ( 1.00)

      6 Sym. Ops. (no inversion) found


                                    s                        frac. trans.

      isym =  1     identity                                     

 cryst.   s( 1) = (     1          0          0      )
                  (     0          1          0      )
                  (     0          0          1      )

 cart.    s( 1) = (  1.0000000  0.0000000  0.0000000 )
                  (  0.0000000  1.0000000  0.0000000 )
                  (  0.0000000  0.0000000  1.0000000 )


      isym =  2     120 deg rotation - cryst. axis [0,0,1]       

 cryst.   s( 2) = (     0          1          0      )
                  (    -1         -1          0      )
                  (     0          0          1      )

 cart.    s( 2) = ( -0.5000000 -0.8660254  0.0000000 )
                  (  0.8660254 -0.5000000  0.0000000 )
                  (  0.0000000  0.0000000  1.0000000 )


      isym =  3     120 deg rotation - cryst. axis [0,0,-1]      

 cryst.   s( 3) = (    -1         -1          0      )
                  (     1          0          0      )
                  (     0          0          1      )

 cart.    s( 3) = ( -0.5000000  0.8660254  0.0000000 )
                  ( -0.8660254 -0.5000000  0.0000000 )
                  (  0.0000000  0.0000000  1.0000000 )


      isym =  4     inv. 180 deg rotation - cart. axis [1,0,0]   

 cryst.   s( 4) = (    -1          0          0      )
                  (     1          1          0      )
                  (     0          0          1      )

 cart.    s( 4) = ( -1.0000000 -0.0000000  0.0000000 )
                  (  0.0000000  1.0000000  0.0000000 )
                  (  0.0000000  0.0000000  1.0000000 )


      isym =  5     inv. 180 deg rotation - cryst. axis [0,1,0]  

 cryst.   s( 5) = (     1          1          0      )
                  (     0         -1          0      )
                  (     0          0          1      )

 cart.    s( 5) = (  0.5000000  0.8660254  0.0000000 )
                  (  0.8660254 -0.5000000  0.0000000 )
                  (  0.0000000  0.0000000  1.0000000 )


      isym =  6     inv. 180 deg rotation - cryst. axis [1,1,0]  

 cryst.   s( 6) = (     0         -1          0      )
                  (    -1          0          0      )
                  (     0          0          1      )

 cart.    s( 6) = (  0.5000000 -0.8660254  0.0000000 )
                  ( -0.8660254 -0.5000000  0.0000000 )
                  (  0.0000000  0.0000000  1.0000000 )


     point group C_3v (3m)  
     there are  3 classes
     the character table:

       E     2C3   3s_v 
A_1    1.00  1.00  1.00
A_2    1.00  1.00 -1.00
E      2.00 -1.00  0.00

     the symmetry operations in each class and the name of the first element:

     E        1
          identity                                               
     2C3      2    3
          120 deg rotation - cryst. axis [0,0,1]                 
     3s_v     4    5    6
          inv. 180 deg rotation - cart. axis [1,0,0]             

   Cartesian axes

     site n.     atom                  positions (alat units)
         1           Zn  tau(   1) = (   0.0000000   0.0000000   0.0000000  )
         2           S   tau(   2) = (   0.0000000   0.0000000   0.3723729  )
         3           Zn  tau(   3) = (   0.0000000   0.5773503   0.5000000  )
         4           S   tau(   4) = (   0.0000000   0.5773503   0.8723729  )

   Crystallographic axes

     site n.     atom                  positions (cryst. coord.)
         1           Zn  tau(   1) = (  0.0000000  0.0000000  0.0000000  )
         2           S   tau(   2) = (  0.0000000  0.0000000  0.2272307  )
         3           Zn  tau(   3) = (  0.3333333  0.6666667  0.3051118  )
         4           S   tau(   4) = (  0.3333333  0.6666667  0.5323426  )

     number of k points=   201
                       cart. coord. in units 2pi/alat
        k(    1) = (   0.5000000   0.8660254   0.0000000), wk =   0.0099502
        k(    2) = (   0.4875000   0.8443748   0.0000000), wk =   0.0099502
        k(    3) = (   0.4750000   0.8227241   0.0000000), wk =   0.0099502
        k(    4) = (   0.4625000   0.8010735   0.0000000), wk =   0.0099502
        k(    5) = (   0.4500000   0.7794229   0.0000000), wk =   0.0099502
        k(    6) = (   0.4375000   0.7577722   0.0000000), wk =   0.0099502
        k(    7) = (   0.4250000   0.7361216   0.0000000), wk =   0.0099502
        k(    8) = (   0.4125000   0.7144710   0.0000000), wk =   0.0099502
        k(    9) = (   0.4000000   0.6928203   0.0000000), wk =   0.0099502
        k(   10) = (   0.3875000   0.6711697   0.0000000), wk =   0.0099502
        k(   11) = (   0.3750000   0.6495191   0.0000000), wk =   0.0099502
        k(   12) = (   0.3625000   0.6278684   0.0000000), wk =   0.0099502
        k(   13) = (   0.3500000   0.6062178   0.0000000), wk =   0.0099502
        k(   14) = (   0.3375000   0.5845671   0.0000000), wk =   0.0099502
        k(   15) = (   0.3250000   0.5629165   0.0000000), wk =   0.0099502
        k(   16) = (   0.3125000   0.5412659   0.0000000), wk =   0.0099502
        k(   17) = (   0.3000000   0.5196152   0.0000000), wk =   0.0099502
        k(   18) = (   0.2875000   0.4979646   0.0000000), wk =   0.0099502
        k(   19) = (   0.2750000   0.4763140   0.0000000), wk =   0.0099502
        k(   20) = (   0.2625000   0.4546633   0.0000000), wk =   0.0099502
        k(   21) = (   0.2500000   0.4330127   0.0000000), wk =   0.0099502
        k(   22) = (   0.2375000   0.4113621   0.0000000), wk =   0.0099502
        k(   23) = (   0.2250000   0.3897114   0.0000000), wk =   0.0099502
        k(   24) = (   0.2125000   0.3680608   0.0000000), wk =   0.0099502
        k(   25) = (   0.2000000   0.3464102   0.0000000), wk =   0.0099502
        k(   26) = (   0.1875000   0.3247595   0.0000000), wk =   0.0099502
        k(   27) = (   0.1750000   0.3031089   0.0000000), wk =   0.0099502
        k(   28) = (   0.1625000   0.2814583   0.0000000), wk =   0.0099502
        k(   29) = (   0.1500000   0.2598076   0.0000000), wk =   0.0099502
        k(   30) = (   0.1375000   0.2381570   0.0000000), wk =   0.0099502
        k(   31) = (   0.1250000   0.2165064   0.0000000), wk =   0.0099502
        k(   32) = (   0.1125000   0.1948557   0.0000000), wk =   0.0099502
        k(   33) = (   0.1000000   0.1732051   0.0000000), wk =   0.0099502
        k(   34) = (   0.0875000   0.1515544   0.0000000), wk =   0.0099502
        k(   35) = (   0.0750000   0.1299038   0.0000000), wk =   0.0099502
        k(   36) = (   0.0625000   0.1082532   0.0000000), wk =   0.0099502
        k(   37) = (   0.0500000   0.0866025   0.0000000), wk =   0.0099502
        k(   38) = (   0.0375000   0.0649519   0.0000000), wk =   0.0099502
        k(   39) = (   0.0250000   0.0433013   0.0000000), wk =   0.0099502
        k(   40) = (   0.0125000   0.0216506   0.0000000), wk =   0.0099502
        k(   41) = (   0.0000000   0.0000000   0.0000000), wk =   0.0099502
        k(   42) = (   0.0125000   0.0216506   0.0076278), wk =   0.0099502
        k(   43) = (   0.0250000   0.0433013   0.0152556), wk =   0.0099502
        k(   44) = (   0.0375000   0.0649519   0.0228834), wk =   0.0099502
        k(   45) = (   0.0500000   0.0866025   0.0305112), wk =   0.0099502
        k(   46) = (   0.0625000   0.1082532   0.0381390), wk =   0.0099502
        k(   47) = (   0.0750000   0.1299038   0.0457668), wk =   0.0099502
        k(   48) = (   0.0875000   0.1515544   0.0533946), wk =   0.0099502
        k(   49) = (   0.1000000   0.1732051   0.0610224), wk =   0.0099502
        k(   50) = (   0.1125000   0.1948557   0.0686502), wk =   0.0099502
        k(   51) = (   0.1250000   0.2165064   0.0762780), wk =   0.0099502
        k(   52) = (   0.1375000   0.2381570   0.0839058), wk =   0.0099502
        k(   53) = (   0.1500000   0.2598076   0.0915335), wk =   0.0099502
        k(   54) = (   0.1625000   0.2814583   0.0991613), wk =   0.0099502
        k(   55) = (   0.1750000   0.3031089   0.1067891), wk =   0.0099502
        k(   56) = (   0.1875000   0.3247595   0.1144169), wk =   0.0099502
        k(   57) = (   0.2000000   0.3464102   0.1220447), wk =   0.0099502
        k(   58) = (   0.2125000   0.3680608   0.1296725), wk =   0.0099502
        k(   59) = (   0.2250000   0.3897114   0.1373003), wk =   0.0099502
        k(   60) = (   0.2375000   0.4113621   0.1449281), wk =   0.0099502
        k(   61) = (   0.2500000   0.4330127   0.1525559), wk =   0.0099502
        k(   62) = (   0.2625000   0.4546633   0.1601837), wk =   0.0099502
        k(   63) = (   0.2750000   0.4763140   0.1678115), wk =   0.0099502
        k(   64) = (   0.2875000   0.4979646   0.1754393), wk =   0.0099502
        k(   65) = (   0.3000000   0.5196152   0.1830671), wk =   0.0099502
        k(   66) = (   0.3125000   0.5412659   0.1906949), wk =   0.0099502
        k(   67) = (   0.3250000   0.5629165   0.1983227), wk =   0.0099502
        k(   68) = (   0.3375000   0.5845671   0.2059505), wk =   0.0099502
        k(   69) = (   0.3500000   0.6062178   0.2135783), wk =   0.0099502
        k(   70) = (   0.3625000   0.6278684   0.2212061), wk =   0.0099502
        k(   71) = (   0.3750000   0.6495191   0.2288339), wk =   0.0099502
        k(   72) = (   0.3875000   0.6711697   0.2364617), wk =   0.0099502
        k(   73) = (   0.4000000   0.6928203   0.2440895), wk =   0.0099502
        k(   74) = (   0.4125000   0.7144710   0.2517173), wk =   0.0099502
        k(   75) = (   0.4250000   0.7361216   0.2593450), wk =   0.0099502
        k(   76) = (   0.4375000   0.7577722   0.2669728), wk =   0.0099502
        k(   77) = (   0.4500000   0.7794229   0.2746006), wk =   0.0099502
        k(   78) = (   0.4625000   0.8010735   0.2822284), wk =   0.0099502
        k(   79) = (   0.4750000   0.8227241   0.2898562), wk =   0.0099502
        k(   80) = (   0.4875000   0.8443748   0.2974840), wk =   0.0099502
        k(   81) = (   0.5000000   0.8660254   0.3051118), wk =   0.0099502
        k(   82) = (   0.5062500   0.8696338   0.3012979), wk =   0.0099502
        k(   83) = (   0.5125000   0.8732423   0.2974840), wk =   0.0099502
        k(   84) = (   0.5187500   0.8768507   0.2936701), wk =   0.0099502
        k(   85) = (   0.5250000   0.8804592   0.2898562), wk =   0.0099502
        k(   86) = (   0.5312500   0.8840676   0.2860423), wk =   0.0099502
        k(   87) = (   0.5375000   0.8876760   0.2822284), wk =   0.0099502
        k(   88) = (   0.5437500   0.8912845   0.2784145), wk =   0.0099502
        k(   89) = (   0.5500000   0.8948929   0.2746006), wk =   0.0099502
        k(   90) = (   0.5562500   0.8985014   0.2707867), wk =   0.0099502
        k(   91) = (   0.5625000   0.9021098   0.2669728), wk =   0.0099502
        k(   92) = (   0.5687500   0.9057182   0.2631589), wk =   0.0099502
        k(   93) = (   0.5750000   0.9093267   0.2593450), wk =   0.0099502
        k(   94) = (   0.5812500   0.9129351   0.2555312), wk =   0.0099502
        k(   95) = (   0.5875000   0.9165436   0.2517173), wk =   0.0099502
        k(   96) = (   0.5937500   0.9201520   0.2479034), wk =   0.0099502
        k(   97) = (   0.6000000   0.9237604   0.2440895), wk =   0.0099502
        k(   98) = (   0.6062500   0.9273689   0.2402756), wk =   0.0099502
        k(   99) = (   0.6125000   0.9309773   0.2364617), wk =   0.0099502
        k(  100) = (   0.6187500   0.9345857   0.2326478), wk =   0.0099502
        k(  101) = (   0.6250000   0.9381942   0.2288339), wk =   0.0099502
        k(  102) = (   0.6312500   0.9418026   0.2250200), wk =   0.0099502
        k(  103) = (   0.6375000   0.9454111   0.2212061), wk =   0.0099502
        k(  104) = (   0.6437500   0.9490195   0.2173922), wk =   0.0099502
        k(  105) = (   0.6500000   0.9526279   0.2135783), wk =   0.0099502
        k(  106) = (   0.6562500   0.9562364   0.2097644), wk =   0.0099502
        k(  107) = (   0.6625000   0.9598448   0.2059505), wk =   0.0099502
        k(  108) = (   0.6687500   0.9634533   0.2021366), wk =   0.0099502
        k(  109) = (   0.6750000   0.9670617   0.1983227), wk =   0.0099502
        k(  110) = (   0.6812500   0.9706701   0.1945088), wk =   0.0099502
        k(  111) = (   0.6875000   0.9742786   0.1906949), wk =   0.0099502
        k(  112) = (   0.6937500   0.9778870   0.1868810), wk =   0.0099502
        k(  113) = (   0.7000000   0.9814955   0.1830671), wk =   0.0099502
        k(  114) = (   0.7062500   0.9851039   0.1792532), wk =   0.0099502
        k(  115) = (   0.7125000   0.9887123   0.1754393), wk =   0.0099502
        k(  116) = (   0.7187500   0.9923208   0.1716254), wk =   0.0099502
        k(  117) = (   0.7250000   0.9959292   0.1678115), wk =   0.0099502
        k(  118) = (   0.7312500   0.9995377   0.1639976), wk =   0.0099502
        k(  119) = (   0.7375000   1.0031461   0.1601837), wk =   0.0099502
        k(  120) = (   0.7437500   1.0067545   0.1563698), wk =   0.0099502
        k(  121) = (   0.7500000   1.0103630   0.1525559), wk =   0.0099502
        k(  122) = (   0.7500000   1.0067545   0.1544629), wk =   0.0099502
        k(  123) = (   0.7500000   1.0031461   0.1563698), wk =   0.0099502
        k(  124) = (   0.7500000   0.9995377   0.1582768), wk =   0.0099502
        k(  125) = (   0.7500000   0.9959292   0.1601837), wk =   0.0099502
        k(  126) = (   0.7500000   0.9923208   0.1620907), wk =   0.0099502
        k(  127) = (   0.7500000   0.9887123   0.1639976), wk =   0.0099502
        k(  128) = (   0.7500000   0.9851039   0.1659046), wk =   0.0099502
        k(  129) = (   0.7500000   0.9814955   0.1678115), wk =   0.0099502
        k(  130) = (   0.7500000   0.9778870   0.1697185), wk =   0.0099502
        k(  131) = (   0.7500000   0.9742786   0.1716254), wk =   0.0099502
        k(  132) = (   0.7500000   0.9706701   0.1735323), wk =   0.0099502
        k(  133) = (   0.7500000   0.9670617   0.1754393), wk =   0.0099502
        k(  134) = (   0.7500000   0.9634533   0.1773462), wk =   0.0099502
        k(  135) = (   0.7500000   0.9598448   0.1792532), wk =   0.0099502
        k(  136) = (   0.7500000   0.9562364   0.1811601), wk =   0.0099502
        k(  137) = (   0.7500000   0.9526279   0.1830671), wk =   0.0099502
        k(  138) = (   0.7500000   0.9490195   0.1849740), wk =   0.0099502
        k(  139) = (   0.7500000   0.9454111   0.1868810), wk =   0.0099502
        k(  140) = (   0.7500000   0.9418026   0.1887879), wk =   0.0099502
        k(  141) = (   0.7500000   0.9381942   0.1906949), wk =   0.0099502
        k(  142) = (   0.7500000   0.9345857   0.1926018), wk =   0.0099502
        k(  143) = (   0.7500000   0.9309773   0.1945088), wk =   0.0099502
        k(  144) = (   0.7500000   0.9273689   0.1964157), wk =   0.0099502
        k(  145) = (   0.7500000   0.9237604   0.1983227), wk =   0.0099502
        k(  146) = (   0.7500000   0.9201520   0.2002296), wk =   0.0099502
        k(  147) = (   0.7500000   0.9165436   0.2021366), wk =   0.0099502
        k(  148) = (   0.7500000   0.9129351   0.2040435), wk =   0.0099502
        k(  149) = (   0.7500000   0.9093267   0.2059505), wk =   0.0099502
        k(  150) = (   0.7500000   0.9057182   0.2078574), wk =   0.0099502
        k(  151) = (   0.7500000   0.9021098   0.2097644), wk =   0.0099502
        k(  152) = (   0.7500000   0.8985014   0.2116713), wk =   0.0099502
        k(  153) = (   0.7500000   0.8948929   0.2135783), wk =   0.0099502
        k(  154) = (   0.7500000   0.8912845   0.2154852), wk =   0.0099502
        k(  155) = (   0.7500000   0.8876760   0.2173922), wk =   0.0099502
        k(  156) = (   0.7500000   0.8840676   0.2192991), wk =   0.0099502
        k(  157) = (   0.7500000   0.8804592   0.2212061), wk =   0.0099502
        k(  158) = (   0.7500000   0.8768507   0.2231130), wk =   0.0099502
        k(  159) = (   0.7500000   0.8732423   0.2250200), wk =   0.0099502
        k(  160) = (   0.7500000   0.8696338   0.2269269), wk =   0.0099502
        k(  161) = (   0.7500000   0.8660254   0.2288339), wk =   0.0099502
        k(  162) = (   0.7312500   0.8443748   0.2231130), wk =   0.0099502
        k(  163) = (   0.7125000   0.8227241   0.2173922), wk =   0.0099502
        k(  164) = (   0.6937500   0.8010735   0.2116713), wk =   0.0099502
        k(  165) = (   0.6750000   0.7794229   0.2059505), wk =   0.0099502
        k(  166) = (   0.6562500   0.7577722   0.2002296), wk =   0.0099502
        k(  167) = (   0.6375000   0.7361216   0.1945088), wk =   0.0099502
        k(  168) = (   0.6187500   0.7144710   0.1887879), wk =   0.0099502
        k(  169) = (   0.6000000   0.6928203   0.1830671), wk =   0.0099502
        k(  170) = (   0.5812500   0.6711697   0.1773462), wk =   0.0099502
        k(  171) = (   0.5625000   0.6495191   0.1716254), wk =   0.0099502
        k(  172) = (   0.5437500   0.6278684   0.1659046), wk =   0.0099502
        k(  173) = (   0.5250000   0.6062178   0.1601837), wk =   0.0099502
        k(  174) = (   0.5062500   0.5845671   0.1544629), wk =   0.0099502
        k(  175) = (   0.4875000   0.5629165   0.1487420), wk =   0.0099502
        k(  176) = (   0.4687500   0.5412659   0.1430212), wk =   0.0099502
        k(  177) = (   0.4500000   0.5196152   0.1373003), wk =   0.0099502
        k(  178) = (   0.4312500   0.4979646   0.1315795), wk =   0.0099502
        k(  179) = (   0.4125000   0.4763140   0.1258586), wk =   0.0099502
        k(  180) = (   0.3937500   0.4546633   0.1201378), wk =   0.0099502
        k(  181) = (   0.3750000   0.4330127   0.1144169), wk =   0.0099502
        k(  182) = (   0.3562500   0.4113621   0.1086961), wk =   0.0099502
        k(  183) = (   0.3375000   0.3897114   0.1029752), wk =   0.0099502
        k(  184) = (   0.3187500   0.3680608   0.0972544), wk =   0.0099502
        k(  185) = (   0.3000000   0.3464102   0.0915335), wk =   0.0099502
        k(  186) = (   0.2812500   0.3247595   0.0858127), wk =   0.0099502
        k(  187) = (   0.2625000   0.3031089   0.0800919), wk =   0.0099502
        k(  188) = (   0.2437500   0.2814583   0.0743710), wk =   0.0099502
        k(  189) = (   0.2250000   0.2598076   0.0686502), wk =   0.0099502
        k(  190) = (   0.2062500   0.2381570   0.0629293), wk =   0.0099502
        k(  191) = (   0.1875000   0.2165064   0.0572085), wk =   0.0099502
        k(  192) = (   0.1687500   0.1948557   0.0514876), wk =   0.0099502
        k(  193) = (   0.1500000   0.1732051   0.0457668), wk =   0.0099502
        k(  194) = (   0.1312500   0.1515544   0.0400459), wk =   0.0099502
        k(  195) = (   0.1125000   0.1299038   0.0343251), wk =   0.0099502
        k(  196) = (   0.0937500   0.1082532   0.0286042), wk =   0.0099502
        k(  197) = (   0.0750000   0.0866025   0.0228834), wk =   0.0099502
        k(  198) = (   0.0562500   0.0649519   0.0171625), wk =   0.0099502
        k(  199) = (   0.0375000   0.0433013   0.0114417), wk =   0.0099502
        k(  200) = (   0.0187500   0.0216506   0.0057208), wk =   0.0099502
        k(  201) = (   0.0000000   0.0000000   0.0000000), wk =   0.0099502

                       cryst. coord.
        k(    1) = (   0.5000000   0.5000000   0.0000000), wk =   0.0099502
        k(    2) = (   0.4875000   0.4875000   0.0000000), wk =   0.0099502
        k(    3) = (   0.4750000   0.4750000   0.0000000), wk =   0.0099502
        k(    4) = (   0.4625000   0.4625000   0.0000000), wk =   0.0099502
        k(    5) = (   0.4500000   0.4500000   0.0000000), wk =   0.0099502
        k(    6) = (   0.4375000   0.4375000   0.0000000), wk =   0.0099502
        k(    7) = (   0.4250000   0.4250000   0.0000000), wk =   0.0099502
        k(    8) = (   0.4125000   0.4125000   0.0000000), wk =   0.0099502
        k(    9) = (   0.4000000   0.4000000   0.0000000), wk =   0.0099502
        k(   10) = (   0.3875000   0.3875000   0.0000000), wk =   0.0099502
        k(   11) = (   0.3750000   0.3750000   0.0000000), wk =   0.0099502
        k(   12) = (   0.3625000   0.3625000   0.0000000), wk =   0.0099502
        k(   13) = (   0.3500000   0.3500000   0.0000000), wk =   0.0099502
        k(   14) = (   0.3375000   0.3375000   0.0000000), wk =   0.0099502
        k(   15) = (   0.3250000   0.3250000   0.0000000), wk =   0.0099502
        k(   16) = (   0.3125000   0.3125000   0.0000000), wk =   0.0099502
        k(   17) = (   0.3000000   0.3000000   0.0000000), wk =   0.0099502
        k(   18) = (   0.2875000   0.2875000   0.0000000), wk =   0.0099502
        k(   19) = (   0.2750000   0.2750000   0.0000000), wk =   0.0099502
        k(   20) = (   0.2625000   0.2625000   0.0000000), wk =   0.0099502
        k(   21) = (   0.2500000   0.2500000   0.0000000), wk =   0.0099502
        k(   22) = (   0.2375000   0.2375000   0.0000000), wk =   0.0099502
        k(   23) = (   0.2250000   0.2250000   0.0000000), wk =   0.0099502
        k(   24) = (   0.2125000   0.2125000   0.0000000), wk =   0.0099502
        k(   25) = (   0.2000000   0.2000000   0.0000000), wk =   0.0099502
        k(   26) = (   0.1875000   0.1875000   0.0000000), wk =   0.0099502
        k(   27) = (   0.1750000   0.1750000   0.0000000), wk =   0.0099502
        k(   28) = (   0.1625000   0.1625000   0.0000000), wk =   0.0099502
        k(   29) = (   0.1500000   0.1500000   0.0000000), wk =   0.0099502
        k(   30) = (   0.1375000   0.1375000   0.0000000), wk =   0.0099502
        k(   31) = (   0.1250000   0.1250000   0.0000000), wk =   0.0099502
        k(   32) = (   0.1125000   0.1125000   0.0000000), wk =   0.0099502
        k(   33) = (   0.1000000   0.1000000   0.0000000), wk =   0.0099502
        k(   34) = (   0.0875000   0.0875000   0.0000000), wk =   0.0099502
        k(   35) = (   0.0750000   0.0750000   0.0000000), wk =   0.0099502
        k(   36) = (   0.0625000   0.0625000   0.0000000), wk =   0.0099502
        k(   37) = (   0.0500000   0.0500000   0.0000000), wk =   0.0099502
        k(   38) = (   0.0375000   0.0375000   0.0000000), wk =   0.0099502
        k(   39) = (   0.0250000   0.0250000   0.0000000), wk =   0.0099502
        k(   40) = (   0.0125000   0.0125000   0.0000000), wk =   0.0099502
        k(   41) = (   0.0000000   0.0000000   0.0000000), wk =   0.0099502
        k(   42) = (   0.0125000   0.0125000   0.0125000), wk =   0.0099502
        k(   43) = (   0.0250000   0.0250000   0.0250000), wk =   0.0099502
        k(   44) = (   0.0375000   0.0375000   0.0375000), wk =   0.0099502
        k(   45) = (   0.0500000   0.0500000   0.0500000), wk =   0.0099502
        k(   46) = (   0.0625000   0.0625000   0.0625000), wk =   0.0099502
        k(   47) = (   0.0750000   0.0750000   0.0750000), wk =   0.0099502
        k(   48) = (   0.0875000   0.0875000   0.0875000), wk =   0.0099502
        k(   49) = (   0.1000000   0.1000000   0.1000000), wk =   0.0099502
        k(   50) = (   0.1125000   0.1125000   0.1125000), wk =   0.0099502
        k(   51) = (   0.1250000   0.1250000   0.1250000), wk =   0.0099502
        k(   52) = (   0.1375000   0.1375000   0.1375000), wk =   0.0099502
        k(   53) = (   0.1500000   0.1500000   0.1500000), wk =   0.0099502
        k(   54) = (   0.1625000   0.1625000   0.1625000), wk =   0.0099502
        k(   55) = (   0.1750000   0.1750000   0.1750000), wk =   0.0099502
        k(   56) = (   0.1875000   0.1875000   0.1875000), wk =   0.0099502
        k(   57) = (   0.2000000   0.2000000   0.2000000), wk =   0.0099502
        k(   58) = (   0.2125000   0.2125000   0.2125000), wk =   0.0099502
        k(   59) = (   0.2250000   0.2250000   0.2250000), wk =   0.0099502
        k(   60) = (   0.2375000   0.2375000   0.2375000), wk =   0.0099502
        k(   61) = (   0.2500000   0.2500000   0.2500000), wk =   0.0099502
        k(   62) = (   0.2625000   0.2625000   0.2625000), wk =   0.0099502
        k(   63) = (   0.2750000   0.2750000   0.2750000), wk =   0.0099502
        k(   64) = (   0.2875000   0.2875000   0.2875000), wk =   0.0099502
        k(   65) = (   0.3000000   0.3000000   0.3000000), wk =   0.0099502
        k(   66) = (   0.3125000   0.3125000   0.3125000), wk =   0.0099502
        k(   67) = (   0.3250000   0.3250000   0.3250000), wk =   0.0099502
        k(   68) = (   0.3375000   0.3375000   0.3375000), wk =   0.0099502
        k(   69) = (   0.3500000   0.3500000   0.3500000), wk =   0.0099502
        k(   70) = (   0.3625000   0.3625000   0.3625000), wk =   0.0099502
        k(   71) = (   0.3750000   0.3750000   0.3750000), wk =   0.0099502
        k(   72) = (   0.3875000   0.3875000   0.3875000), wk =   0.0099502
        k(   73) = (   0.4000000   0.4000000   0.4000000), wk =   0.0099502
        k(   74) = (   0.4125000   0.4125000   0.4125000), wk =   0.0099502
        k(   75) = (   0.4250000   0.4250000   0.4250000), wk =   0.0099502
        k(   76) = (   0.4375000   0.4375000   0.4375000), wk =   0.0099502
        k(   77) = (   0.4500000   0.4500000   0.4500000), wk =   0.0099502
        k(   78) = (   0.4625000   0.4625000   0.4625000), wk =   0.0099502
        k(   79) = (   0.4750000   0.4750000   0.4750000), wk =   0.0099502
        k(   80) = (   0.4875000   0.4875000   0.4875000), wk =   0.0099502
        k(   81) = (   0.5000000   0.5000000   0.5000000), wk =   0.0099502
        k(   82) = (   0.5062500   0.5000000   0.4937500), wk =   0.0099502
        k(   83) = (   0.5125000   0.5000000   0.4875000), wk =   0.0099502
        k(   84) = (   0.5187500   0.5000000   0.4812500), wk =   0.0099502
        k(   85) = (   0.5250000   0.5000000   0.4750000), wk =   0.0099502
        k(   86) = (   0.5312500   0.5000000   0.4687500), wk =   0.0099502
        k(   87) = (   0.5375000   0.5000000   0.4625000), wk =   0.0099502
        k(   88) = (   0.5437500   0.5000000   0.4562500), wk =   0.0099502
        k(   89) = (   0.5500000   0.5000000   0.4500000), wk =   0.0099502
        k(   90) = (   0.5562500   0.5000000   0.4437500), wk =   0.0099502
        k(   91) = (   0.5625000   0.5000000   0.4375000), wk =   0.0099502
        k(   92) = (   0.5687500   0.5000000   0.4312500), wk =   0.0099502
        k(   93) = (   0.5750000   0.5000000   0.4250000), wk =   0.0099502
        k(   94) = (   0.5812500   0.5000000   0.4187500), wk =   0.0099502
        k(   95) = (   0.5875000   0.5000000   0.4125000), wk =   0.0099502
        k(   96) = (   0.5937500   0.5000000   0.4062500), wk =   0.0099502
        k(   97) = (   0.6000000   0.5000000   0.4000000), wk =   0.0099502
        k(   98) = (   0.6062500   0.5000000   0.3937500), wk =   0.0099502
        k(   99) = (   0.6125000   0.5000000   0.3875000), wk =   0.0099502
        k(  100) = (   0.6187500   0.5000000   0.3812500), wk =   0.0099502
        k(  101) = (   0.6250000   0.5000000   0.3750000), wk =   0.0099502
        k(  102) = (   0.6312500   0.5000000   0.3687500), wk =   0.0099502
        k(  103) = (   0.6375000   0.5000000   0.3625000), wk =   0.0099502
        k(  104) = (   0.6437500   0.5000000   0.3562500), wk =   0.0099502
        k(  105) = (   0.6500000   0.5000000   0.3500000), wk =   0.0099502
        k(  106) = (   0.6562500   0.5000000   0.3437500), wk =   0.0099502
        k(  107) = (   0.6625000   0.5000000   0.3375000), wk =   0.0099502
        k(  108) = (   0.6687500   0.5000000   0.3312500), wk =   0.0099502
        k(  109) = (   0.6750000   0.5000000   0.3250000), wk =   0.0099502
        k(  110) = (   0.6812500   0.5000000   0.3187500), wk =   0.0099502
        k(  111) = (   0.6875000   0.5000000   0.3125000), wk =   0.0099502
        k(  112) = (   0.6937500   0.5000000   0.3062500), wk =   0.0099502
        k(  113) = (   0.7000000   0.5000000   0.3000000), wk =   0.0099502
        k(  114) = (   0.7062500   0.5000000   0.2937500), wk =   0.0099502
        k(  115) = (   0.7125000   0.5000000   0.2875000), wk =   0.0099502
        k(  116) = (   0.7187500   0.5000000   0.2812500), wk =   0.0099502
        k(  117) = (   0.7250000   0.5000000   0.2750000), wk =   0.0099502
        k(  118) = (   0.7312500   0.5000000   0.2687500), wk =   0.0099502
        k(  119) = (   0.7375000   0.5000000   0.2625000), wk =   0.0099502
        k(  120) = (   0.7437500   0.5000000   0.2562500), wk =   0.0099502
        k(  121) = (   0.7500000   0.5000000   0.2500000), wk =   0.0099502
        k(  122) = (   0.7500000   0.4968750   0.2531250), wk =   0.0099502
        k(  123) = (   0.7500000   0.4937500   0.2562500), wk =   0.0099502
        k(  124) = (   0.7500000   0.4906250   0.2593750), wk =   0.0099502
        k(  125) = (   0.7500000   0.4875000   0.2625000), wk =   0.0099502
        k(  126) = (   0.7500000   0.4843750   0.2656250), wk =   0.0099502
        k(  127) = (   0.7500000   0.4812500   0.2687500), wk =   0.0099502
        k(  128) = (   0.7500000   0.4781250   0.2718750), wk =   0.0099502
        k(  129) = (   0.7500000   0.4750000   0.2750000), wk =   0.0099502
        k(  130) = (   0.7500000   0.4718750   0.2781250), wk =   0.0099502
        k(  131) = (   0.7500000   0.4687500   0.2812500), wk =   0.0099502
        k(  132) = (   0.7500000   0.4656250   0.2843750), wk =   0.0099502
        k(  133) = (   0.7500000   0.4625000   0.2875000), wk =   0.0099502
        k(  134) = (   0.7500000   0.4593750   0.2906250), wk =   0.0099502
        k(  135) = (   0.7500000   0.4562500   0.2937500), wk =   0.0099502
        k(  136) = (   0.7500000   0.4531250   0.2968750), wk =   0.0099502
        k(  137) = (   0.7500000   0.4500000   0.3000000), wk =   0.0099502
        k(  138) = (   0.7500000   0.4468750   0.3031250), wk =   0.0099502
        k(  139) = (   0.7500000   0.4437500   0.3062500), wk =   0.0099502
        k(  140) = (   0.7500000   0.4406250   0.3093750), wk =   0.0099502
        k(  141) = (   0.7500000   0.4375000   0.3125000), wk =   0.0099502
        k(  142) = (   0.7500000   0.4343750   0.3156250), wk =   0.0099502
        k(  143) = (   0.7500000   0.4312500   0.3187500), wk =   0.0099502
        k(  144) = (   0.7500000   0.4281250   0.3218750), wk =   0.0099502
        k(  145) = (   0.7500000   0.4250000   0.3250000), wk =   0.0099502
        k(  146) = (   0.7500000   0.4218750   0.3281250), wk =   0.0099502
        k(  147) = (   0.7500000   0.4187500   0.3312500), wk =   0.0099502
        k(  148) = (   0.7500000   0.4156250   0.3343750), wk =   0.0099502
        k(  149) = (   0.7500000   0.4125000   0.3375000), wk =   0.0099502
        k(  150) = (   0.7500000   0.4093750   0.3406250), wk =   0.0099502
        k(  151) = (   0.7500000   0.4062500   0.3437500), wk =   0.0099502
        k(  152) = (   0.7500000   0.4031250   0.3468750), wk =   0.0099502
        k(  153) = (   0.7500000   0.4000000   0.3500000), wk =   0.0099502
        k(  154) = (   0.7500000   0.3968750   0.3531250), wk =   0.0099502
        k(  155) = (   0.7500000   0.3937500   0.3562500), wk =   0.0099502
        k(  156) = (   0.7500000   0.3906250   0.3593750), wk =   0.0099502
        k(  157) = (   0.7500000   0.3875000   0.3625000), wk =   0.0099502
        k(  158) = (   0.7500000   0.3843750   0.3656250), wk =   0.0099502
        k(  159) = (   0.7500000   0.3812500   0.3687500), wk =   0.0099502
        k(  160) = (   0.7500000   0.3781250   0.3718750), wk =   0.0099502
        k(  161) = (   0.7500000   0.3750000   0.3750000), wk =   0.0099502
        k(  162) = (   0.7312500   0.3656250   0.3656250), wk =   0.0099502
        k(  163) = (   0.7125000   0.3562500   0.3562500), wk =   0.0099502
        k(  164) = (   0.6937500   0.3468750   0.3468750), wk =   0.0099502
        k(  165) = (   0.6750000   0.3375000   0.3375000), wk =   0.0099502
        k(  166) = (   0.6562500   0.3281250   0.3281250), wk =   0.0099502
        k(  167) = (   0.6375000   0.3187500   0.3187500), wk =   0.0099502
        k(  168) = (   0.6187500   0.3093750   0.3093750), wk =   0.0099502
        k(  169) = (   0.6000000   0.3000000   0.3000000), wk =   0.0099502
        k(  170) = (   0.5812500   0.2906250   0.2906250), wk =   0.0099502
        k(  171) = (   0.5625000   0.2812500   0.2812500), wk =   0.0099502
        k(  172) = (   0.5437500   0.2718750   0.2718750), wk =   0.0099502
        k(  173) = (   0.5250000   0.2625000   0.2625000), wk =   0.0099502
        k(  174) = (   0.5062500   0.2531250   0.2531250), wk =   0.0099502
        k(  175) = (   0.4875000   0.2437500   0.2437500), wk =   0.0099502
        k(  176) = (   0.4687500   0.2343750   0.2343750), wk =   0.0099502
        k(  177) = (   0.4500000   0.2250000   0.2250000), wk =   0.0099502
        k(  178) = (   0.4312500   0.2156250   0.2156250), wk =   0.0099502
        k(  179) = (   0.4125000   0.2062500   0.2062500), wk =   0.0099502
        k(  180) = (   0.3937500   0.1968750   0.1968750), wk =   0.0099502
        k(  181) = (   0.3750000   0.1875000   0.1875000), wk =   0.0099502
        k(  182) = (   0.3562500   0.1781250   0.1781250), wk =   0.0099502
        k(  183) = (   0.3375000   0.1687500   0.1687500), wk =   0.0099502
        k(  184) = (   0.3187500   0.1593750   0.1593750), wk =   0.0099502
        k(  185) = (   0.3000000   0.1500000   0.1500000), wk =   0.0099502
        k(  186) = (   0.2812500   0.1406250   0.1406250), wk =   0.0099502
        k(  187) = (   0.2625000   0.1312500   0.1312500), wk =   0.0099502
        k(  188) = (   0.2437500   0.1218750   0.1218750), wk =   0.0099502
        k(  189) = (   0.2250000   0.1125000   0.1125000), wk =   0.0099502
        k(  190) = (   0.2062500   0.1031250   0.1031250), wk =   0.0099502
        k(  191) = (   0.1875000   0.0937500   0.0937500), wk =   0.0099502
        k(  192) = (   0.1687500   0.0843750   0.0843750), wk =   0.0099502
        k(  193) = (   0.1500000   0.0750000   0.0750000), wk =   0.0099502
        k(  194) = (   0.1312500   0.0656250   0.0656250), wk =   0.0099502
        k(  195) = (   0.1125000   0.0562500   0.0562500), wk =   0.0099502
        k(  196) = (   0.0937500   0.0468750   0.0468750), wk =   0.0099502
        k(  197) = (   0.0750000   0.0375000   0.0375000), wk =   0.0099502
        k(  198) = (   0.0562500   0.0281250   0.0281250), wk =   0.0099502
        k(  199) = (   0.0375000   0.0187500   0.0187500), wk =   0.0099502
        k(  200) = (   0.0187500   0.0093750   0.0093750), wk =   0.0099502
        k(  201) = (   0.0000000   0.0000000   0.0000000), wk =   0.0099502

     Dense  grid:    34121 G-vectors     FFT dimensions: (  36,  36,  60)

     Dynamical RAM for                 wfc:       0.98 MB

     Dynamical RAM for     wfc (w. buffer):       0.98 MB

     Dynamical RAM for           str. fact:       1.04 MB

     Dynamical RAM for           local pot:       0.00 MB

     Dynamical RAM for          nlocal pot:       3.39 MB

     Dynamical RAM for                qrad:       2.49 MB

     Dynamical RAM for          rho,v,vnew:       3.34 MB

     Dynamical RAM for           G-vectors:       2.21 MB

     Dynamical RAM for          h,s,v(r/c):       0.04 MB

     Dynamical RAM for          <psi|beta>:       0.01 MB

     Dynamical RAM for                 psi:       1.95 MB

     Dynamical RAM for                hpsi:       1.95 MB

     Dynamical RAM for      wfcinit/wfcrot:       1.96 MB

     Estimated static dynamical RAM per process >      17.98 MB

     Estimated max dynamical RAM per process >      21.94 MB

     The potential is recalculated from file :
     ./SCRATCH/zns_w.save/charge-density

     Starting wfcs are random

     Band Structure Calculation
     Davidson diagonalization with overlap

     Computing kpt #:     1  of   201
     total cpu time spent up to now is        2.1 secs

     Computing kpt #:     2  of   201
     total cpu time spent up to now is        4.0 secs

     Computing kpt #:     3  of   201
     total cpu time spent up to now is        5.9 secs

     Computing kpt #:     4  of   201
     total cpu time spent up to now is        7.9 secs

     Computing kpt #:     5  of   201
     total cpu time spent up to now is        9.5 secs

     Computing kpt #:     6  of   201
     total cpu time spent up to now is       11.5 secs

     Computing kpt #:     7  of   201
     total cpu time spent up to now is       13.5 secs

     Computing kpt #:     8  of   201
     total cpu time spent up to now is       15.5 secs

     Computing kpt #:     9  of   201
     total cpu time spent up to now is       17.2 secs

     Computing kpt #:    10  of   201
     total cpu time spent up to now is       19.0 secs

     Computing kpt #:    11  of   201
     total cpu time spent up to now is       20.9 secs

     Computing kpt #:    12  of   201
     total cpu time spent up to now is       22.7 secs

     Computing kpt #:    13  of   201
     total cpu time spent up to now is       24.5 secs

     Computing kpt #:    14  of   201
     total cpu time spent up to now is       26.4 secs

     Computing kpt #:    15  of   201
     total cpu time spent up to now is       28.3 secs

     Computing kpt #:    16  of   201
     total cpu time spent up to now is       30.3 secs

     Computing kpt #:    17  of   201
     total cpu time spent up to now is       32.1 secs

     Computing kpt #:    18  of   201
     total cpu time spent up to now is       34.1 secs

     Computing kpt #:    19  of   201
     total cpu time spent up to now is       36.0 secs

     Computing kpt #:    20  of   201
     total cpu time spent up to now is       38.0 secs

     Computing kpt #:    21  of   201
     total cpu time spent up to now is       39.8 secs

     Computing kpt #:    22  of   201
     total cpu time spent up to now is       41.8 secs

     Computing kpt #:    23  of   201
     total cpu time spent up to now is       43.8 secs

     Computing kpt #:    24  of   201
     total cpu time spent up to now is       45.8 secs

     Computing kpt #:    25  of   201
     total cpu time spent up to now is       47.8 secs

     Computing kpt #:    26  of   201
     total cpu time spent up to now is       49.7 secs

     Computing kpt #:    27  of   201
     total cpu time spent up to now is       51.6 secs

     Computing kpt #:    28  of   201
     total cpu time spent up to now is       53.6 secs

     Computing kpt #:    29  of   201
     total cpu time spent up to now is       55.6 secs

     Computing kpt #:    30  of   201
     total cpu time spent up to now is       57.5 secs

     Computing kpt #:    31  of   201
     total cpu time spent up to now is       59.5 secs

     Computing kpt #:    32  of   201
     total cpu time spent up to now is       61.4 secs

     Computing kpt #:    33  of   201
     total cpu time spent up to now is       63.3 secs

     Computing kpt #:    34  of   201
     total cpu time spent up to now is       65.2 secs

     Computing kpt #:    35  of   201
     total cpu time spent up to now is       67.1 secs

     Computing kpt #:    36  of   201
     total cpu time spent up to now is       69.1 secs

     Computing kpt #:    37  of   201
     c_bands:  1 eigenvalues not converged
     total cpu time spent up to now is       71.1 secs

     Computing kpt #:    38  of   201
     total cpu time spent up to now is       73.0 secs

     Computing kpt #:    39  of   201
     total cpu time spent up to now is       74.9 secs

     Computing kpt #:    40  of   201
     total cpu time spent up to now is       76.8 secs

     Computing kpt #:    41  of   201
     total cpu time spent up to now is       78.7 secs

     Computing kpt #:    42  of   201
     total cpu time spent up to now is       80.6 secs

     Computing kpt #:    43  of   201
     total cpu time spent up to now is       82.7 secs

     Computing kpt #:    44  of   201
     total cpu time spent up to now is       84.5 secs

     Computing kpt #:    45  of   201
     total cpu time spent up to now is       86.5 secs

     Computing kpt #:    46  of   201
     total cpu time spent up to now is       88.5 secs

     Computing kpt #:    47  of   201
     total cpu time spent up to now is       90.4 secs

     Computing kpt #:    48  of   201
     total cpu time spent up to now is       92.2 secs

     Computing kpt #:    49  of   201
     total cpu time spent up to now is       94.1 secs

     Computing kpt #:    50  of   201
     total cpu time spent up to now is       96.0 secs

     Computing kpt #:    51  of   201
     total cpu time spent up to now is       97.9 secs

     Computing kpt #:    52  of   201
     total cpu time spent up to now is       99.9 secs

     Computing kpt #:    53  of   201
     total cpu time spent up to now is      101.7 secs

     Computing kpt #:    54  of   201
     total cpu time spent up to now is      103.5 secs

     Computing kpt #:    55  of   201
     total cpu time spent up to now is      105.5 secs

     Computing kpt #:    56  of   201
     total cpu time spent up to now is      107.5 secs

     Computing kpt #:    57  of   201
     total cpu time spent up to now is      109.4 secs

     Computing kpt #:    58  of   201
     total cpu time spent up to now is      111.4 secs

     Computing kpt #:    59  of   201
     total cpu time spent up to now is      113.2 secs

     Computing kpt #:    60  of   201
     c_bands:  1 eigenvalues not converged
     total cpu time spent up to now is      115.1 secs

     Computing kpt #:    61  of   201
     total cpu time spent up to now is      117.1 secs

     Computing kpt #:    62  of   201
     total cpu time spent up to now is      118.9 secs

     Computing kpt #:    63  of   201
     total cpu time spent up to now is      120.8 secs

     Computing kpt #:    64  of   201
     total cpu time spent up to now is      122.7 secs

     Computing kpt #:    65  of   201
     total cpu time spent up to now is      124.6 secs

     Computing kpt #:    66  of   201
     total cpu time spent up to now is      126.6 secs

     Computing kpt #:    67  of   201
     total cpu time spent up to now is      128.6 secs

     Computing kpt #:    68  of   201
     total cpu time spent up to now is      130.4 secs

     Computing kpt #:    69  of   201
     total cpu time spent up to now is      132.3 secs

     Computing kpt #:    70  of   201
     total cpu time spent up to now is      134.2 secs

     Computing kpt #:    71  of   201
     total cpu time spent up to now is      135.8 secs

     Computing kpt #:    72  of   201
     total cpu time spent up to now is      137.7 secs

     Computing kpt #:    73  of   201
     total cpu time spent up to now is      139.6 secs

     Computing kpt #:    74  of   201
     total cpu time spent up to now is      141.5 secs

     Computing kpt #:    75  of   201
     total cpu time spent up to now is      143.5 secs

     Computing kpt #:    76  of   201
     total cpu time spent up to now is      145.3 secs

     Computing kpt #:    77  of   201
     total cpu time spent up to now is      147.2 secs

     Computing kpt #:    78  of   201
     total cpu time spent up to now is      149.1 secs

     Computing kpt #:    79  of   201
     total cpu time spent up to now is      151.0 secs

     Computing kpt #:    80  of   201
     total cpu time spent up to now is      152.8 secs

     Computing kpt #:    81  of   201
     total cpu time spent up to now is      154.7 secs

     Computing kpt #:    82  of   201
     total cpu time spent up to now is      156.6 secs

     Computing kpt #:    83  of   201
     total cpu time spent up to now is      158.5 secs

     Computing kpt #:    84  of   201
     total cpu time spent up to now is      160.4 secs

     Computing kpt #:    85  of   201
     total cpu time spent up to now is      162.3 secs

     Computing kpt #:    86  of   201
     total cpu time spent up to now is      164.2 secs

     Computing kpt #:    87  of   201
     total cpu time spent up to now is      166.1 secs

     Computing kpt #:    88  of   201
     total cpu time spent up to now is      168.0 secs

     Computing kpt #:    89  of   201
     total cpu time spent up to now is      169.9 secs

     Computing kpt #:    90  of   201
     total cpu time spent up to now is      171.9 secs

     Computing kpt #:    91  of   201
     total cpu time spent up to now is      173.7 secs

     Computing kpt #:    92  of   201
     total cpu time spent up to now is      175.7 secs

     Computing kpt #:    93  of   201
     total cpu time spent up to now is      177.6 secs

     Computing kpt #:    94  of   201
     c_bands:  1 eigenvalues not converged
     total cpu time spent up to now is      179.6 secs

     Computing kpt #:    95  of   201
     total cpu time spent up to now is      181.5 secs

     Computing kpt #:    96  of   201
     total cpu time spent up to now is      183.4 secs

     Computing kpt #:    97  of   201
     total cpu time spent up to now is      185.3 secs

     Computing kpt #:    98  of   201
     total cpu time spent up to now is      187.2 secs

     Computing kpt #:    99  of   201
     total cpu time spent up to now is      189.0 secs

     Computing kpt #:   100  of   201
     total cpu time spent up to now is      190.9 secs

     Computing kpt #:   101  of   201
     total cpu time spent up to now is      192.8 secs

     Computing kpt #:   102  of   201
     total cpu time spent up to now is      194.7 secs

     Computing kpt #:   103  of   201
     total cpu time spent up to now is      196.7 secs

     Computing kpt #:   104  of   201
     total cpu time spent up to now is      198.6 secs

     Computing kpt #:   105  of   201
     total cpu time spent up to now is      200.6 secs

     Computing kpt #:   106  of   201
     total cpu time spent up to now is      202.5 secs

     Computing kpt #:   107  of   201
     total cpu time spent up to now is      204.4 secs

     Computing kpt #:   108  of   201
     total cpu time spent up to now is      206.3 secs

     Computing kpt #:   109  of   201
     total cpu time spent up to now is      208.1 secs

     Computing kpt #:   110  of   201
     total cpu time spent up to now is      210.1 secs

     Computing kpt #:   111  of   201
     total cpu time spent up to now is      211.8 secs

     Computing kpt #:   112  of   201
     total cpu time spent up to now is      213.8 secs

     Computing kpt #:   113  of   201
     total cpu time spent up to now is      215.4 secs

     Computing kpt #:   114  of   201
     total cpu time spent up to now is      217.4 secs

     Computing kpt #:   115  of   201
     total cpu time spent up to now is      219.3 secs

     Computing kpt #:   116  of   201
     total cpu time spent up to now is      221.2 secs

     Computing kpt #:   117  of   201
     total cpu time spent up to now is      223.1 secs

     Computing kpt #:   118  of   201
     c_bands:  1 eigenvalues not converged
     total cpu time spent up to now is      225.0 secs

     Computing kpt #:   119  of   201
     c_bands:  1 eigenvalues not converged
     total cpu time spent up to now is      227.0 secs

     Computing kpt #:   120  of   201
     total cpu time spent up to now is      228.9 secs

     Computing kpt #:   121  of   201
     total cpu time spent up to now is      230.8 secs

     Computing kpt #:   122  of   201
     total cpu time spent up to now is      232.7 secs

     Computing kpt #:   123  of   201
     total cpu time spent up to now is      234.6 secs

     Computing kpt #:   124  of   201
     c_bands:  2 eigenvalues not converged
     total cpu time spent up to now is      236.6 secs

     Computing kpt #:   125  of   201
     total cpu time spent up to now is      238.4 secs

     Computing kpt #:   126  of   201
     total cpu time spent up to now is      240.4 secs

     Computing kpt #:   127  of   201
     total cpu time spent up to now is      242.2 secs

     Computing kpt #:   128  of   201
     total cpu time spent up to now is      244.2 secs

     Computing kpt #:   129  of   201
     total cpu time spent up to now is      246.0 secs

     Computing kpt #:   130  of   201
     total cpu time spent up to now is      247.9 secs

     Computing kpt #:   131  of   201
     total cpu time spent up to now is      249.8 secs

     Computing kpt #:   132  of   201
     total cpu time spent up to now is      251.6 secs

     Computing kpt #:   133  of   201
     total cpu time spent up to now is      253.6 secs

     Computing kpt #:   134  of   201
     total cpu time spent up to now is      255.5 secs

     Computing kpt #:   135  of   201
     total cpu time spent up to now is      257.4 secs

     Computing kpt #:   136  of   201
     total cpu time spent up to now is      259.3 secs

     Computing kpt #:   137  of   201
     total cpu time spent up to now is      261.2 secs

     Computing kpt #:   138  of   201
     total cpu time spent up to now is      263.1 secs

     Computing kpt #:   139  of   201
     total cpu time spent up to now is      265.0 secs

     Computing kpt #:   140  of   201
     total cpu time spent up to now is      266.9 secs

     Computing kpt #:   141  of   201
     c_bands:  1 eigenvalues not converged
     total cpu time spent up to now is      268.9 secs

     Computing kpt #:   142  of   201
     total cpu time spent up to now is      270.8 secs

     Computing kpt #:   143  of   201
     total cpu time spent up to now is      272.8 secs

     Computing kpt #:   144  of   201
     total cpu time spent up to now is      274.7 secs

     Computing kpt #:   145  of   201
     total cpu time spent up to now is      276.7 secs

     Computing kpt #:   146  of   201
     total cpu time spent up to now is      278.7 secs

     Computing kpt #:   147  of   201
     total cpu time spent up to now is      280.6 secs

     Computing kpt #:   148  of   201
     total cpu time spent up to now is      282.6 secs

     Computing kpt #:   149  of   201
     total cpu time spent up to now is      284.4 secs

     Computing kpt #:   150  of   201
     total cpu time spent up to now is      286.2 secs

     Computing kpt #:   151  of   201
     total cpu time spent up to now is      288.1 secs

     Computing kpt #:   152  of   201
     total cpu time spent up to now is      290.1 secs

     Computing kpt #:   153  of   201
     total cpu time spent up to now is      292.0 secs

     Computing kpt #:   154  of   201
     total cpu time spent up to now is      293.7 secs

     Computing kpt #:   155  of   201
     total cpu time spent up to now is      295.6 secs

     Computing kpt #:   156  of   201
     total cpu time spent up to now is      297.6 secs

     Computing kpt #:   157  of   201
     total cpu time spent up to now is      299.5 secs

     Computing kpt #:   158  of   201
     c_bands:  1 eigenvalues not converged
     total cpu time spent up to now is      301.5 secs

     Computing kpt #:   159  of   201
     total cpu time spent up to now is      303.4 secs

     Computing kpt #:   160  of   201
     total cpu time spent up to now is      305.3 secs

     Computing kpt #:   161  of   201
     total cpu time spent up to now is      307.3 secs

     Computing kpt #:   162  of   201
     total cpu time spent up to now is      309.0 secs

     Computing kpt #:   163  of   201
     total cpu time spent up to now is      310.8 secs

     Computing kpt #:   164  of   201
     total cpu time spent up to now is      312.8 secs

     Computing kpt #:   165  of   201
     total cpu time spent up to now is      314.8 secs

     Computing kpt #:   166  of   201
     total cpu time spent up to now is      316.7 secs

     Computing kpt #:   167  of   201
     total cpu time spent up to now is      318.7 secs

     Computing kpt #:   168  of   201
     total cpu time spent up to now is      320.5 secs

     Computing kpt #:   169  of   201
     total cpu time spent up to now is      322.5 secs

     Computing kpt #:   170  of   201
     total cpu time spent up to now is      324.4 secs

     Computing kpt #:   171  of   201
     total cpu time spent up to now is      326.3 secs

     Computing kpt #:   172  of   201
     total cpu time spent up to now is      328.2 secs

     Computing kpt #:   173  of   201
     total cpu time spent up to now is      330.2 secs

     Computing kpt #:   174  of   201
     total cpu time spent up to now is      332.1 secs

     Computing kpt #:   175  of   201
     total cpu time spent up to now is      334.0 secs

     Computing kpt #:   176  of   201
     total cpu time spent up to now is      335.9 secs

     Computing kpt #:   177  of   201
     total cpu time spent up to now is      337.6 secs

     Computing kpt #:   178  of   201
     total cpu time spent up to now is      339.6 secs

     Computing kpt #:   179  of   201
     c_bands:  1 eigenvalues not converged
     total cpu time spent up to now is      341.6 secs

     Computing kpt #:   180  of   201
     total cpu time spent up to now is      343.3 secs

     Computing kpt #:   181  of   201
     total cpu time spent up to now is      345.1 secs

     Computing kpt #:   182  of   201
     total cpu time spent up to now is      347.0 secs

     Computing kpt #:   183  of   201
     total cpu time spent up to now is      348.9 secs

     Computing kpt #:   184  of   201
     total cpu time spent up to now is      350.8 secs

     Computing kpt #:   185  of   201
     total cpu time spent up to now is      352.7 secs

     Computing kpt #:   186  of   201
     total cpu time spent up to now is      354.7 secs

     Computing kpt #:   187  of   201
     total cpu time spent up to now is      356.7 secs

     Computing kpt #:   188  of   201
     total cpu time spent up to now is      358.6 secs

     Computing kpt #:   189  of   201
     total cpu time spent up to now is      360.5 secs

     Computing kpt #:   190  of   201
     c_bands:  1 eigenvalues not converged
     total cpu time spent up to now is      362.5 secs

     Computing kpt #:   191  of   201
     total cpu time spent up to now is      364.4 secs

     Computing kpt #:   192  of   201
     total cpu time spent up to now is      366.4 secs

     Computing kpt #:   193  of   201
     total cpu time spent up to now is      368.3 secs

     Computing kpt #:   194  of   201
     total cpu time spent up to now is      370.3 secs

     Computing kpt #:   195  of   201
     total cpu time spent up to now is      372.1 secs

     Computing kpt #:   196  of   201
     total cpu time spent up to now is      374.0 secs

     Computing kpt #:   197  of   201
     total cpu time spent up to now is      375.9 secs

     Computing kpt #:   198  of   201
     total cpu time spent up to now is      377.8 secs

     Computing kpt #:   199  of   201
     total cpu time spent up to now is      379.7 secs

     Computing kpt #:   200  of   201
     total cpu time spent up to now is      381.7 secs

     Computing kpt #:   201  of   201
     c_bands:  1 eigenvalues not converged
     total cpu time spent up to now is      383.6 secs

     ethr =  1.92E-10,  avg # of iterations =110.8

     total cpu time spent up to now is      383.6 secs

     End of band structure calculation

          k = 0.5000 0.8660 0.0000 (  4272 PWs)   bands (ev):

  -121.5250-120.6540 -76.8900 -75.9558 -75.3408 -75.3407 -74.5724 -74.5723
    -9.1325  -6.8233  -4.2356  -4.0901  -3.6462  -3.0510  -2.9143

          k = 0.4875 0.8444 0.0000 (  4282 PWs)   bands (ev):

  -121.5250-120.6540 -76.8900 -75.9558 -75.3408 -75.3407 -74.5724 -74.5723
    -9.1320  -6.8232  -4.2351  -4.0908  -3.6454  -3.0509  -2.9148

          k = 0.4750 0.8227 0.0000 (  4279 PWs)   bands (ev):

  -121.5250-120.6540 -76.8900 -75.9558 -75.3408 -75.3407 -74.5724 -74.5723
    -9.1303  -6.8229  -4.2335  -4.0928  -3.6427  -3.0504  -2.9158

          k = 0.4625 0.8011 0.0000 (  4271 PWs)   bands (ev):

  -121.5250-120.6540 -76.8900 -75.9558 -75.3408 -75.3407 -74.5724 -74.5723
    -9.1276  -6.8222  -4.2309  -4.0959  -3.6382  -3.0497  -2.9173

          k = 0.4500 0.7794 0.0000 (  4283 PWs)   bands (ev):

  -121.5250-120.6540 -76.8900 -75.9558 -75.3408 -75.3407 -74.5724 -74.5723
    -9.1240  -6.8215  -4.2274  -4.1004  -3.6324  -3.0488  -2.9197

          k = 0.4375 0.7578 0.0000 (  4285 PWs)   bands (ev):

  -121.5250-120.6540 -76.8900 -75.9557 -75.3408 -75.3407 -74.5723 -74.5723
    -9.1196  -6.8205  -4.2230  -4.1061  -3.6252  -3.0477  -2.9226

          k = 0.4250 0.7361 0.0000 (  4287 PWs)   bands (ev):

  -121.5250-120.6540 -76.8900 -75.9557 -75.3408 -75.3407 -74.5723 -74.5723
    -9.1147  -6.8194  -4.2178  -4.1123  -3.6173  -3.0465  -2.9254

          k = 0.4125 0.7145 0.0000 (  4283 PWs)   bands (ev):

  -121.5250-120.6540 -76.8900 -75.9557 -75.3408 -75.3408 -74.5723 -74.5723
    -9.1094  -6.8183  -4.2119  -4.1191  -3.6089  -3.0451  -2.9283

          k = 0.4000 0.6928 0.0000 (  4295 PWs)   bands (ev):

  -121.5250-120.6540 -76.8900 -75.9557 -75.3408 -75.3408 -74.5723 -74.5723
    -9.1040  -6.8173  -4.2056  -4.1267  -3.6004  -3.0441  -2.9314

          k = 0.3875 0.6712 0.0000 (  4311 PWs)   bands (ev):

  -121.5250-120.6540 -76.8900 -75.9558 -75.3408 -75.3408 -74.5723 -74.5723
    -9.0989  -6.8162  -4.1989  -4.1345  -3.5923  -3.0431  -2.9342

          k = 0.3750 0.6495 0.0000 (  4305 PWs)   bands (ev):

  -121.5250-120.6540 -76.8900 -75.9558 -75.3408 -75.3408 -74.5723 -74.5723
    -9.0942  -6.8153  -4.1918  -4.1423  -3.5847  -3.0423  -2.9363

          k = 0.3625 0.6279 0.0000 (  4305 PWs)   bands (ev):

  -121.5250-120.6540 -76.8900 -75.9558 -75.3408 -75.3408 -74.5723 -74.5723
    -9.0903  -6.8145  -4.1846  -4.1500  -3.5784  -3.0416  -2.9379

          k = 0.3500 0.6062 0.0000 (  4295 PWs)   bands (ev):

  -121.5250-120.6540 -76.8900 -75.9558 -75.3408 -75.3408 -74.5723 -74.5723
    -9.0875  -6.8139  -4.1773  -4.1576  -3.5738  -3.0413  -2.9389

          k = 0.3375 0.5846 0.0000 (  4299 PWs)   bands (ev):

  -121.5250-120.6540 -76.8900 -75.9558 -75.3408 -75.3408 -74.5723 -74.5723
    -9.0861  -6.8137  -4.1701  -4.1651  -3.5716  -3.0411  -2.9394

          k = 0.3250 0.5629 0.0000 (  4293 PWs)   bands (ev):

  -121.5250-120.6540 -76.8900 -75.9558 -75.3408 -75.3408 -74.5723 -74.5723
    -9.0864  -6.8137  -4.1722  -4.1625  -3.5722  -3.0409  -2.9391

          k = 0.3125 0.5413 0.0000 (  4289 PWs)   bands (ev):

  -121.5250-120.6540 -76.8900 -75.9558 -75.3408 -75.3408 -74.5723 -74.5723
    -9.0886  -6.8141  -4.1790  -4.1555  -3.5756  -3.0410  -2.9385

          k = 0.3000 0.5196 0.0000 (  4291 PWs)   bands (ev):

  -121.5250-120.6540 -76.8900 -75.9558 -75.3408 -75.3408 -74.5723 -74.5723
    -9.0931  -6.8149  -4.1852  -4.1488  -3.5825  -3.0412  -2.9377

          k = 0.2875 0.4980 0.0000 (  4283 PWs)   bands (ev):

  -121.5250-120.6540 -76.8900 -75.9558 -75.3408 -75.3408 -74.5723 -74.5723
    -9.0998  -6.8161  -4.1907  -4.1422  -3.5928  -3.0409  -2.9362

          k = 0.2750 0.4763 0.0000 (  4285 PWs)   bands (ev):

  -121.5250-120.6540 -76.8900 -75.9558 -75.3408 -75.3408 -74.5723 -74.5723
    -9.1090  -6.8177  -4.1957  -4.1359  -3.6065  -3.0405  -2.9347

          k = 0.2625 0.4547 0.0000 (  4273 PWs)   bands (ev):

  -121.5250-120.6540 -76.8900 -75.9557 -75.3408 -75.3408 -74.5723 -74.5723
    -9.1207  -6.8197  -4.1998  -4.1297  -3.6234  -3.0393  -2.9330

          k = 0.2500 0.4330 0.0000 (  4271 PWs)   bands (ev):

  -121.5250-120.6540 -76.8900 -75.9557 -75.3408 -75.3408 -74.5723 -74.5723
    -9.1349  -6.8221  -4.2034  -4.1239  -3.6435  -3.0379  -2.9313

          k = 0.2375 0.4114 0.0000 (  4269 PWs)   bands (ev):

  -121.5250-120.6540 -76.8900 -75.9557 -75.3408 -75.3408 -74.5723 -74.5723
    -9.1515  -6.8249  -4.2063  -4.1183  -3.6664  -3.0356  -2.9296

          k = 0.2250 0.3897 0.0000 (  4265 PWs)   bands (ev):

  -121.5250-120.6540 -76.8900 -75.9557 -75.3408 -75.3407 -74.5723 -74.5723
    -9.1704  -6.8280  -4.2084  -4.1129  -3.6914  -3.0328  -2.9280

          k = 0.2125 0.3681 0.0000 (  4257 PWs)   bands (ev):

  -121.5250-120.6540 -76.8900 -75.9557 -75.3408 -75.3407 -74.5723 -74.5723
    -9.1913  -6.8314  -4.2097  -4.1078  -3.7181  -3.0290  -2.9265

          k = 0.2000 0.3464 0.0000 (  4259 PWs)   bands (ev):

  -121.5250-120.6540 -76.8900 -75.9557 -75.3408 -75.3407 -74.5723 -74.5723
    -9.2140  -6.8352  -4.2104  -4.1031  -3.7461  -3.0246  -2.9253

          k = 0.1875 0.3248 0.0000 (  4259 PWs)   bands (ev):

  -121.5250-120.6540 -76.8900 -75.9557 -75.3408 -75.3407 -74.5723 -74.5723
    -9.2381  -6.8391  -4.2102  -4.0986  -3.7746  -3.0194  -2.9243

          k = 0.1750 0.3031 0.0000 (  4259 PWs)   bands (ev):

  -121.5250-120.6540 -76.8900 -75.9557 -75.3408 -75.3407 -74.5723 -74.5723
    -9.2634  -6.8431  -4.2093  -4.0943  -3.8034  -3.0134  -2.9234

          k = 0.1625 0.2815 0.0000 (  4255 PWs)   bands (ev):

  -121.5250-120.6540 -76.8900 -75.9557 -75.3408 -75.3407 -74.5723 -74.5723
    -9.2893  -6.8473  -4.2076  -4.0905  -3.8319  -3.0066  -2.9228

          k = 0.1500 0.2598 0.0000 (  4267 PWs)   bands (ev):

  -121.5250-120.6540 -76.8900 -75.9557 -75.3408 -75.3407 -74.5723 -74.5723
    -9.3155  -6.8516  -4.2054  -4.0870  -3.8600  -2.9995  -2.9224

          k = 0.1375 0.2382 0.0000 (  4269 PWs)   bands (ev):

  -121.5250-120.6540 -76.8900 -75.9557 -75.3407 -75.3407 -74.5723 -74.5722
    -9.3416  -6.8559  -4.2023  -4.0838  -3.8873  -2.9915  -2.9222

          k = 0.1250 0.2165 0.0000 (  4263 PWs)   bands (ev):

  -121.5250-120.6540 -76.8900 -75.9557 -75.3407 -75.3407 -74.5723 -74.5722
    -9.3671  -6.8600  -4.1985  -4.0807  -3.9133  -2.9831  -2.9220

          k = 0.1125 0.1949 0.0000 (  4263 PWs)   bands (ev):

  -121.5250-120.6540 -76.8900 -75.9557 -75.3407 -75.3407 -74.5723 -74.5722
    -9.3916  -6.8641  -4.1940  -4.0783  -3.9378  -2.9744  -2.9221

          k = 0.1000 0.1732 0.0000 (  4249 PWs)   bands (ev):

  -121.5250-120.6540 -76.8900 -75.9557 -75.3407 -75.3407 -74.5723 -74.5722
    -9.4147  -6.8679  -4.1889  -4.0760  -3.9607  -2.9655  -2.9221

          k = 0.0875 0.1516 0.0000 (  4249 PWs)   bands (ev):

  -121.5250-120.6540 -76.8900 -75.9557 -75.3407 -75.3407 -74.5723 -74.5722
    -9.4360  -6.8714  -4.1833  -4.0742  -3.9821  -2.9571  -2.9224

          k = 0.0750 0.1299 0.0000 (  4257 PWs)   bands (ev):

  -121.5250-120.6540 -76.8900 -75.9557 -75.3407 -75.3407 -74.5722 -74.5722
    -9.4553  -6.8746  -4.1776  -4.0727  -4.0019  -2.9494  -2.9228

          k = 0.0625 0.1083 0.0000 (  4245 PWs)   bands (ev):

  -121.5250-120.6540 -76.8900 -75.9557 -75.3407 -75.3407 -74.5722 -74.5722
    -9.4721  -6.8774  -4.1713  -4.0714  -4.0195  -2.9420  -2.9229

          k = 0.0500 0.0866 0.0000 (  4251 PWs)   bands (ev):

  -121.5250-120.6540 -76.8900 -75.9557 -75.3407 -75.3407 -74.5722 -74.5722
    -9.4862  -6.8797  -4.1651  -4.0705  -4.0354  -2.9360  -2.9234

          k = 0.0375 0.0650 0.0000 (  4255 PWs)   bands (ev):

  -121.5250-120.6540 -76.8900 -75.9557 -75.3407 -75.3407 -74.5722 -74.5722
    -9.4975  -6.8816  -4.1590  -4.0698  -4.0490  -2.9310  -2.9237

          k = 0.0250 0.0433 0.0000 (  4255 PWs)   bands (ev):

  -121.5250-120.6540 -76.8900 -75.9557 -75.3407 -75.3407 -74.5722 -74.5722
    -9.5056  -6.8830  -4.1537  -4.0693  -4.0594  -2.9271  -2.9239

          k = 0.0125 0.0217 0.0000 (  4255 PWs)   bands (ev):

  -121.5250-120.6540 -76.8900 -75.9557 -75.3407 -75.3407 -74.5722 -74.5722
    -9.5105  -6.8838  -4.1498  -4.0690  -4.0665  -2.9248  -2.9239

          k = 0.0000 0.0000 0.0000 (  4247 PWs)   bands (ev):

  -121.5250-120.6540 -76.8900 -75.9557 -75.3407 -75.3407 -74.5722 -74.5722
    -9.5122  -6.8840  -4.1482  -4.0689  -4.0689  -2.9239  -2.9239

          k = 0.0125 0.0217 0.0076 (  4255 PWs)   bands (ev):

  -121.5250-120.6540 -76.8900 -75.9557 -75.3407 -75.3407 -74.5722 -74.5722
    -9.5105  -6.8838  -4.1498  -4.0690  -4.0665  -2.9248  -2.9240

          k = 0.0250 0.0433 0.0153 (  4253 PWs)   bands (ev):

  -121.5250-120.6540 -76.8900 -75.9557 -75.3407 -75.3407 -74.5722 -74.5722
    -9.5055  -6.8831  -4.1537  -4.0693  -4.0594  -2.9271  -2.9239

          k = 0.0375 0.0650 0.0229 (  4250 PWs)   bands (ev):

  -121.5250-120.6540 -76.8900 -75.9557 -75.3407 -75.3407 -74.5722 -74.5722
    -9.4973  -6.8818  -4.1591  -4.0698  -4.0489  -2.9310  -2.9236

          k = 0.0500 0.0866 0.0305 (  4251 PWs)   bands (ev):

  -121.5250-120.6540 -76.8900 -75.9557 -75.3407 -75.3407 -74.5722 -74.5722
    -9.4860  -6.8801  -4.1652  -4.0706  -4.0354  -2.9360  -2.9235

          k = 0.0625 0.1083 0.0381 (  4251 PWs)   bands (ev):

  -121.5250-120.6540 -76.8900 -75.9557 -75.3407 -75.3407 -74.5722 -74.5722
    -9.4717  -6.8779  -4.1716  -4.0714  -4.0197  -2.9423  -2.9231

          k = 0.0750 0.1299 0.0458 (  4255 PWs)   bands (ev):

  -121.5250-120.6540 -76.8900 -75.9557 -75.3407 -75.3407 -74.5723 -74.5722
    -9.4547  -6.8752  -4.1779  -4.0726  -4.0020  -2.9496  -2.9228

          k = 0.0875 0.1516 0.0534 (  4251 PWs)   bands (ev):

  -121.5250-120.6540 -76.8900 -75.9557 -75.3407 -75.3407 -74.5723 -74.5722
    -9.4353  -6.8722  -4.1838  -4.0740  -3.9824  -2.9575  -2.9225

          k = 0.1000 0.1732 0.0610 (  4258 PWs)   bands (ev):

  -121.5250-120.6540 -76.8900 -75.9557 -75.3407 -75.3407 -74.5723 -74.5722
    -9.4138  -6.8689  -4.1894  -4.0760  -3.9612  -2.9660  -2.9224

          k = 0.1125 0.1949 0.0687 (  4262 PWs)   bands (ev):

  -121.5250-120.6540 -76.8900 -75.9557 -75.3407 -75.3407 -74.5723 -74.5722
    -9.3905  -6.8652  -4.1945  -4.0783  -3.9382  -2.9745  -2.9224

          k = 0.1250 0.2165 0.0763 (  4260 PWs)   bands (ev):

  -121.5250-120.6540 -76.8900 -75.9557 -75.3407 -75.3407 -74.5723 -74.5722
    -9.3658  -6.8613  -4.1989  -4.0808  -3.9139  -2.9830  -2.9225

          k = 0.1375 0.2382 0.0839 (  4254 PWs)   bands (ev):

  -121.5250-120.6540 -76.8900 -75.9557 -75.3407 -75.3407 -74.5723 -74.5722
    -9.3402  -6.8572  -4.2028  -4.0836  -3.8880  -2.9914  -2.9226

          k = 0.1500 0.2598 0.0915 (  4262 PWs)   bands (ev):

  -121.5250-120.6540 -76.8900 -75.9558 -75.3408 -75.3407 -74.5723 -74.5723
    -9.3140  -6.8530  -4.2060  -4.0869  -3.8611  -2.9995  -2.9231

          k = 0.1625 0.2815 0.0992 (  4268 PWs)   bands (ev):

  -121.5250-120.6540 -76.8900 -75.9558 -75.3408 -75.3407 -74.5723 -74.5723
    -9.2877  -6.8488  -4.2084  -4.0905  -3.8335  -3.0070  -2.9238

          k = 0.1750 0.3031 0.1068 (  4271 PWs)   bands (ev):

  -121.5250-120.6540 -76.8900 -75.9558 -75.3408 -75.3407 -74.5723 -74.5723
    -9.2616  -6.8445  -4.2101  -4.0944  -3.8052  -3.0137  -2.9246

          k = 0.1875 0.3248 0.1144 (  4276 PWs)   bands (ev):

  -121.5250-120.6540 -76.8900 -75.9558 -75.3408 -75.3407 -74.5723 -74.5723
    -9.2363  -6.8403  -4.2111  -4.0985  -3.7767  -3.0198  -2.9256

          k = 0.2000 0.3464 0.1220 (  4273 PWs)   bands (ev):

  -121.5250-120.6540 -76.8900 -75.9558 -75.3408 -75.3407 -74.5723 -74.5723
    -9.2122  -6.8362  -4.2112  -4.1029  -3.7485  -3.0250  -2.9268

          k = 0.2125 0.3681 0.1297 (  4278 PWs)   bands (ev):

  -121.5250-120.6540 -76.8900 -75.9558 -75.3408 -75.3407 -74.5723 -74.5723
    -9.1894  -6.8322  -4.2106  -4.1078  -3.7208  -3.0296  -2.9284

          k = 0.2250 0.3897 0.1373 (  4283 PWs)   bands (ev):

  -121.5250-120.6540 -76.8900 -75.9558 -75.3408 -75.3407 -74.5723 -74.5723
    -9.1686  -6.8285  -4.2091  -4.1128  -3.6946  -3.0333  -2.9301

          k = 0.2375 0.4114 0.1449 (  4280 PWs)   bands (ev):

  -121.5250-120.6540 -76.8900 -75.9558 -75.3408 -75.3408 -74.5723 -74.5723
    -9.1497  -6.8251  -4.2069  -4.1181  -3.6700  -3.0361  -2.9319

          k = 0.2500 0.4330 0.1526 (  4284 PWs)   bands (ev):

  -121.5250-120.6540 -76.8900 -75.9558 -75.3408 -75.3408 -74.5723 -74.5723
    -9.1331  -6.8220  -4.2040  -4.1238  -3.6476  -3.0384  -2.9340

          k = 0.2625 0.4547 0.1602 (  4288 PWs)   bands (ev):

  -121.5250-120.6540 -76.8900 -75.9558 -75.3408 -75.3408 -74.5723 -74.5723
    -9.1190  -6.8193  -4.2003  -4.1296  -3.6281  -3.0399  -2.9360

          k = 0.2750 0.4763 0.1678 (  4294 PWs)   bands (ev):

  -121.5250-120.6540 -76.8900 -75.9558 -75.3408 -75.3408 -74.5723 -74.5723
    -9.1073  -6.8170  -4.1959  -4.1357  -3.6115  -3.0410  -2.9381

          k = 0.2875 0.4980 0.1754 (  4285 PWs)   bands (ev):

  -121.5250-120.6540 -76.8900 -75.9558 -75.3408 -75.3408 -74.5723 -74.5723
    -9.0981  -6.8151  -4.1907  -4.1419  -3.5982  -3.0413  -2.9398

          k = 0.3000 0.5196 0.1831 (  4288 PWs)   bands (ev):

  -121.5250-120.6540 -76.8900 -75.9558 -75.3408 -75.3408 -74.5723 -74.5723
    -9.0914  -6.8137  -4.1851  -4.1485  -3.5884  -3.0415  -2.9414

          k = 0.3125 0.5413 0.1907 (  4283 PWs)   bands (ev):

  -121.5250-120.6540 -76.8900 -75.9558 -75.3408 -75.3408 -74.5723 -74.5723
    -9.0869  -6.8127  -4.1788  -4.1553  -3.5819  -3.0415  -2.9427

          k = 0.3250 0.5629 0.1983 (  4271 PWs)   bands (ev):

  -121.5250-120.6540 -76.8900 -75.9558 -75.3408 -75.3408 -74.5723 -74.5723
    -9.0846  -6.8121  -4.1720  -4.1623  -3.5786  -3.0413  -2.9434

          k = 0.3375 0.5846 0.2060 (  4264 PWs)   bands (ev):

  -121.5250-120.6540 -76.8900 -75.9558 -75.3408 -75.3408 -74.5723 -74.5723
    -9.0842  -6.8120  -4.1696  -4.1644  -3.5784  -3.0411  -2.9435

          k = 0.3500 0.6062 0.2136 (  4272 PWs)   bands (ev):

  -121.5250-120.6540 -76.8900 -75.9558 -75.3408 -75.3408 -74.5723 -74.5723
    -9.0855  -6.8122  -4.1768  -4.1571  -3.5809  -3.0414  -2.9433

          k = 0.3625 0.6279 0.2212 (  4274 PWs)   bands (ev):

  -121.5250-120.6540 -76.8900 -75.9558 -75.3408 -75.3408 -74.5723 -74.5723
    -9.0881  -6.8128  -4.1842  -4.1494  -3.5856  -3.0419  -2.9425

          k = 0.3750 0.6495 0.2288 (  4284 PWs)   bands (ev):

  -121.5250-120.6540 -76.8900 -75.9558 -75.3408 -75.3408 -74.5723 -74.5723
    -9.0919  -6.8136  -4.1915  -4.1416  -3.5920  -3.0426  -2.9410

          k = 0.3875 0.6712 0.2365 (  4283 PWs)   bands (ev):

  -121.5250-120.6540 -76.8900 -75.9558 -75.3408 -75.3408 -74.5723 -74.5723
    -9.0964  -6.8147  -4.1987  -4.1338  -3.5997  -3.0437  -2.9388

          k = 0.4000 0.6928 0.2441 (  4280 PWs)   bands (ev):

  -121.5250-120.6540 -76.8900 -75.9558 -75.3408 -75.3408 -74.5723 -74.5723
    -9.1014  -6.8158  -4.2055  -4.1260  -3.6081  -3.0449  -2.9361

          k = 0.4125 0.7145 0.2517 (  4279 PWs)   bands (ev):

  -121.5250-120.6540 -76.8900 -75.9558 -75.3408 -75.3408 -74.5723 -74.5723
    -9.1066  -6.8171  -4.2120  -4.1185  -3.6168  -3.0463  -2.9330

          k = 0.4250 0.7361 0.2593 (  4272 PWs)   bands (ev):

  -121.5250-120.6540 -76.8900 -75.9558 -75.3408 -75.3407 -74.5723 -74.5723
    -9.1118  -6.8184  -4.2178  -4.1116  -3.6253  -3.0477  -2.9300

          k = 0.4375 0.7578 0.2670 (  4271 PWs)   bands (ev):

  -121.5250-120.6540 -76.8900 -75.9558 -75.3408 -75.3407 -74.5723 -74.5723
    -9.1165  -6.8196  -4.2231  -4.1053  -3.6332  -3.0491  -2.9270

          k = 0.4500 0.7794 0.2746 (  4276 PWs)   bands (ev):

  -121.5250-120.6540 -76.8900 -75.9558 -75.3408 -75.3407 -74.5724 -74.5723
    -9.1208  -6.8207  -4.2276  -4.0999  -3.6404  -3.0504  -2.9243

          k = 0.4625 0.8011 0.2822 (  4274 PWs)   bands (ev):

  -121.5250-120.6540 -76.8900 -75.9558 -75.3408 -75.3407 -74.5724 -74.5723
    -9.1243  -6.8216  -4.2312  -4.0954  -3.6462  -3.0515  -2.9220

          k = 0.4750 0.8227 0.2899 (  4267 PWs)   bands (ev):

  -121.5250-120.6540 -76.8900 -75.9558 -75.3408 -75.3407 -74.5724 -74.5723
    -9.1268  -6.8222  -4.2339  -4.0921  -3.6505  -3.0524  -2.9202

          k = 0.4875 0.8444 0.2975 (  4268 PWs)   bands (ev):

  -121.5250-120.6540 -76.8900 -75.9558 -75.3408 -75.3407 -74.5724 -74.5723
    -9.1284  -6.8226  -4.2355  -4.0901  -3.6532  -3.0529  -2.9192

          k = 0.5000 0.8660 0.3051 (  4272 PWs)   bands (ev):

  -121.5250-120.6540 -76.8900 -75.9557 -75.3408 -75.3407 -74.5724 -74.5723
    -9.1290  -6.8227  -4.2360  -4.0897  -3.6539  -3.0530  -2.9192

          k = 0.5062 0.8696 0.3013 (  4276 PWs)   bands (ev):

  -121.5250-120.6540 -76.8900 -75.9558 -75.3408 -75.3407 -74.5724 -74.5723
    -9.1290  -6.8227  -4.2361  -4.0897  -3.6541  -3.0531  -2.9192

          k = 0.5125 0.8732 0.2975 (  4274 PWs)   bands (ev):

  -121.5250-120.6540 -76.8900 -75.9558 -75.3408 -75.3407 -74.5724 -74.5723
    -9.1290  -6.8227  -4.2360  -4.0897  -3.6541  -3.0531  -2.9191

          k = 0.5188 0.8769 0.2937 (  4273 PWs)   bands (ev):

  -121.5250-120.6540 -76.8900 -75.9558 -75.3408 -75.3407 -74.5724 -74.5723
    -9.1290  -6.8227  -4.2358  -4.0899  -3.6540  -3.0530  -2.9192

          k = 0.5250 0.8805 0.2899 (  4271 PWs)   bands (ev):

  -121.5250-120.6540 -76.8900 -75.9558 -75.3408 -75.3407 -74.5724 -74.5723
    -9.1291  -6.8227  -4.2355  -4.0901  -3.6541  -3.0529  -2.9193

          k = 0.5312 0.8841 0.2860 (  4269 PWs)   bands (ev):

  -121.5250-120.6540 -76.8900 -75.9558 -75.3408 -75.3407 -74.5724 -74.5723
    -9.1291  -6.8227  -4.2351  -4.0905  -3.6540  -3.0527  -2.9194

          k = 0.5375 0.8877 0.2822 (  4269 PWs)   bands (ev):

  -121.5250-120.6540 -76.8900 -75.9558 -75.3408 -75.3407 -74.5724 -74.5723
    -9.1292  -6.8227  -4.2347  -4.0909  -3.6540  -3.0524  -2.9197

          k = 0.5437 0.8913 0.2784 (  4271 PWs)   bands (ev):

  -121.5250-120.6540 -76.8900 -75.9558 -75.3408 -75.3407 -74.5724 -74.5723
    -9.1292  -6.8227  -4.2343  -4.0914  -3.6540  -3.0522  -2.9199

          k = 0.5500 0.8949 0.2746 (  4272 PWs)   bands (ev):

  -121.5250-120.6540 -76.8900 -75.9558 -75.3408 -75.3407 -74.5724 -74.5723
    -9.1293  -6.8227  -4.2337  -4.0920  -3.6539  -3.0519  -2.9202

          k = 0.5563 0.8985 0.2708 (  4274 PWs)   bands (ev):

  -121.5250-120.6540 -76.8900 -75.9558 -75.3408 -75.3407 -74.5724 -74.5723
    -9.1294  -6.8227  -4.2331  -4.0927  -3.6538  -3.0516  -2.9206

          k = 0.5625 0.9021 0.2670 (  4278 PWs)   bands (ev):

  -121.5250-120.6540 -76.8900 -75.9558 -75.3408 -75.3407 -74.5724 -74.5723
    -9.1295  -6.8227  -4.2324  -4.0935  -3.6537  -3.0513  -2.9210

          k = 0.5687 0.9057 0.2632 (  4278 PWs)   bands (ev):

  -121.5250-120.6540 -76.8900 -75.9558 -75.3408 -75.3407 -74.5724 -74.5723
    -9.1296  -6.8227  -4.2316  -4.0943  -3.6536  -3.0509  -2.9214

          k = 0.5750 0.9093 0.2593 (  4275 PWs)   bands (ev):

  -121.5250-120.6540 -76.8900 -75.9558 -75.3408 -75.3407 -74.5724 -74.5723
    -9.1297  -6.8226  -4.2308  -4.0952  -3.6533  -3.0505  -2.9219

          k = 0.5813 0.9129 0.2555 (  4273 PWs)   bands (ev):

  -121.5250-120.6540 -76.8900 -75.9558 -75.3408 -75.3407 -74.5723 -74.5723
    -9.1298  -6.8226  -4.2299  -4.0961  -3.6531  -3.0501  -2.9224

          k = 0.5875 0.9165 0.2517 (  4272 PWs)   bands (ev):

  -121.5250-120.6540 -76.8900 -75.9558 -75.3408 -75.3407 -74.5723 -74.5723
    -9.1299  -6.8226  -4.2290  -4.0971  -3.6530  -3.0496  -2.9229

          k = 0.5938 0.9202 0.2479 (  4271 PWs)   bands (ev):

  -121.5250-120.6540 -76.8900 -75.9558 -75.3408 -75.3407 -74.5723 -74.5723
    -9.1300  -6.8226  -4.2280  -4.0982  -3.6528  -3.0491  -2.9234

          k = 0.6000 0.9238 0.2441 (  4272 PWs)   bands (ev):

  -121.5250-120.6540 -76.8900 -75.9558 -75.3408 -75.3407 -74.5723 -74.5723
    -9.1302  -6.8225  -4.2269  -4.0993  -3.6526  -3.0485  -2.9239

          k = 0.6062 0.9274 0.2403 (  4268 PWs)   bands (ev):

  -121.5250-120.6540 -76.8900 -75.9558 -75.3408 -75.3407 -74.5723 -74.5723
    -9.1303  -6.8225  -4.2258  -4.1004  -3.6523  -3.0480  -2.9245

          k = 0.6125 0.9310 0.2365 (  4273 PWs)   bands (ev):

  -121.5250-120.6540 -76.8900 -75.9558 -75.3408 -75.3407 -74.5723 -74.5723
    -9.1304  -6.8225  -4.2247  -4.1016  -3.6522  -3.0475  -2.9252

          k = 0.6188 0.9346 0.2326 (  4277 PWs)   bands (ev):

  -121.5250-120.6540 -76.8900 -75.9558 -75.3408 -75.3407 -74.5723 -74.5723
    -9.1306  -6.8224  -4.2236  -4.1029  -3.6520  -3.0469  -2.9259

          k = 0.6250 0.9382 0.2288 (  4277 PWs)   bands (ev):

  -121.5250-120.6540 -76.8900 -75.9558 -75.3408 -75.3407 -74.5723 -74.5723
    -9.1307  -6.8224  -4.2223  -4.1042  -3.6518  -3.0464  -2.9265

          k = 0.6312 0.9418 0.2250 (  4277 PWs)   bands (ev):

  -121.5250-120.6540 -76.8900 -75.9558 -75.3408 -75.3407 -74.5723 -74.5723
    -9.1308  -6.8224  -4.2211  -4.1055  -3.6516  -3.0458  -2.9271

          k = 0.6375 0.9454 0.2212 (  4273 PWs)   bands (ev):

  -121.5250-120.6540 -76.8900 -75.9558 -75.3408 -75.3407 -74.5723 -74.5723
    -9.1310  -6.8223  -4.2198  -4.1068  -3.6513  -3.0452  -2.9276

          k = 0.6438 0.9490 0.2174 (  4274 PWs)   bands (ev):

  -121.5250-120.6540 -76.8900 -75.9558 -75.3408 -75.3407 -74.5723 -74.5723
    -9.1311  -6.8223  -4.2186  -4.1081  -3.6511  -3.0446  -2.9282

[...]
    -9.1326  -6.8220  -4.2064  -4.1211  -3.6486  -3.0395  -2.9335

          k = 0.7188 0.9923 0.1716 (  4281 PWs)   bands (ev):

  -121.5250-120.6540 -76.8900 -75.9558 -75.3408 -75.3408 -74.5723 -74.5723
    -9.1327  -6.8220  -4.2057  -4.1219  -3.6485  -3.0392  -2.9337

          k = 0.7250 0.9959 0.1678 (  4280 PWs)   bands (ev):

  -121.5250-120.6540 -76.8900 -75.9558 -75.3408 -75.3408 -74.5723 -74.5723
    -9.1328  -6.8220  -4.2051  -4.1225  -3.6483  -3.0389  -2.9339

          k = 0.7312 0.9995 0.1640 (  4279 PWs)   bands (ev):

  -121.5250-120.6540 -76.8900 -75.9558 -75.3408 -75.3408 -74.5723 -74.5723
    -9.1329  -6.8220  -4.2046  -4.1230  -3.6481  -3.0387  -2.9340

          k = 0.7375 1.0031 0.1602 (  4279 PWs)   bands (ev):

  -121.5250-120.6540 -76.8900 -75.9558 -75.3408 -75.3408 -74.5723 -74.5723
    -9.1330  -6.8220  -4.2042  -4.1234  -3.6479  -3.0385  -2.9340

          k = 0.7438 1.0068 0.1564 (  4279 PWs)   bands (ev):

  -121.5250-120.6540 -76.8900 -75.9558 -75.3408 -75.3408 -74.5723 -74.5723
    -9.1331  -6.8220  -4.2040  -4.1236  -3.6478  -3.0384  -2.9340

          k = 0.7500 1.0104 0.1526 (  4284 PWs)   bands (ev):

  -121.5250-120.6540 -76.8900 -75.9558 -75.3408 -75.3408 -74.5723 -74.5723
    -9.1331  -6.8220  -4.2040  -4.1238  -3.6476  -3.0384  -2.9340

          k = 0.7500 1.0068 0.1545 (  4281 PWs)   bands (ev):

  -121.5250-120.6540 -76.8900 -75.9558 -75.3408 -75.3408 -74.5723 -74.5723
    -9.1350  -6.8224  -4.2043  -4.1230  -3.6504  -3.0381  -2.9338

          k = 0.7500 1.0031 0.1564 (  4277 PWs)   bands (ev):

  -121.5250-120.6540 -76.8900 -75.9558 -75.3408 -75.3408 -74.5723 -74.5723
    -9.1370  -6.8227  -4.2047  -4.1222  -3.6532  -3.0379  -2.9335

          k = 0.7500 0.9995 0.1583 (  4278 PWs)   bands (ev):

  -121.5250-120.6540 -76.8900 -75.9558 -75.3408 -75.3408 -74.5723 -74.5723
    -9.1389  -6.8231  -4.2052  -4.1215  -3.6560  -3.0376  -2.9333

          k = 0.7500 0.9959 0.1602 (  4278 PWs)   bands (ev):

  -121.5250-120.6540 -76.8900 -75.9558 -75.3408 -75.3408 -74.5723 -74.5723
    -9.1409  -6.8235  -4.2056  -4.1208  -3.6589  -3.0374  -2.9332

          k = 0.7500 0.9923 0.1621 (  4279 PWs)   bands (ev):

  -121.5250-120.6540 -76.8900 -75.9558 -75.3408 -75.3408 -74.5723 -74.5723
    -9.1429  -6.8239  -4.2060  -4.1200  -3.6618  -3.0372  -2.9330

          k = 0.7500 0.9887 0.1640 (  4279 PWs)   bands (ev):

  -121.5250-120.6540 -76.8900 -75.9558 -75.3408 -75.3408 -74.5723 -74.5723
    -9.1450  -6.8243  -4.2064  -4.1193  -3.6648  -3.0369  -2.9328

          k = 0.7500 0.9851 0.1659 (  4278 PWs)   bands (ev):

  -121.5250-120.6540 -76.8900 -75.9558 -75.3408 -75.3408 -74.5723 -74.5723
    -9.1471  -6.8247  -4.2068  -4.1185  -3.6677  -3.0367  -2.9326

          k = 0.7500 0.9815 0.1678 (  4278 PWs)   bands (ev):

  -121.5250-120.6540 -76.8900 -75.9558 -75.3408 -75.3407 -74.5723 -74.5723
    -9.1492  -6.8251  -4.2072  -4.1178  -3.6707  -3.0364  -2.9324

          k = 0.7500 0.9779 0.1697 (  4280 PWs)   bands (ev):

  -121.5250-120.6540 -76.8900 -75.9558 -75.3408 -75.3407 -74.5723 -74.5723
    -9.1513  -6.8255  -4.2076  -4.1170  -3.6738  -3.0361  -2.9322

          k = 0.7500 0.9743 0.1716 (  4278 PWs)   bands (ev):

  -121.5250-120.6540 -76.8900 -75.9558 -75.3408 -75.3407 -74.5723 -74.5723
    -9.1535  -6.8260  -4.2080  -4.1163  -3.6769  -3.0358  -2.9320

          k = 0.7500 0.9707 0.1735 (  4278 PWs)   bands (ev):

  -121.5250-120.6540 -76.8900 -75.9558 -75.3408 -75.3407 -74.5723 -74.5723
    -9.1557  -6.8264  -4.2084  -4.1155  -3.6799  -3.0355  -2.9318

          k = 0.7500 0.9671 0.1754 (  4278 PWs)   bands (ev):

  -121.5250-120.6540 -76.8900 -75.9558 -75.3408 -75.3407 -74.5723 -74.5723
    -9.1579  -6.8268  -4.2088  -4.1147  -3.6831  -3.0353  -2.9316

          k = 0.7500 0.9635 0.1773 (  4277 PWs)   bands (ev):

  -121.5250-120.6540 -76.8900 -75.9558 -75.3408 -75.3407 -74.5723 -74.5723
    -9.1602  -6.8273  -4.2091  -4.1140  -3.6862  -3.0349  -2.9314

          k = 0.7500 0.9598 0.1793 (  4278 PWs)   bands (ev):

  -121.5250-120.6540 -76.8900 -75.9558 -75.3408 -75.3407 -74.5723 -74.5723
    -9.1625  -6.8278  -4.2095  -4.1133  -3.6893  -3.0347  -2.9312

          k = 0.7500 0.9562 0.1812 (  4278 PWs)   bands (ev):

  -121.5250-120.6540 -76.8900 -75.9558 -75.3408 -75.3407 -74.5723 -74.5723
    -9.1648  -6.8282  -4.2099  -4.1125  -3.6925  -3.0344  -2.9310

          k = 0.7500 0.9526 0.1831 (  4278 PWs)   bands (ev):

  -121.5250-120.6540 -76.8900 -75.9558 -75.3408 -75.3407 -74.5723 -74.5723
    -9.1671  -6.8287  -4.2103  -4.1118  -3.6958  -3.0340  -2.9308

          k = 0.7500 0.9490 0.1850 (  4276 PWs)   bands (ev):

  -121.5250-120.6540 -76.8900 -75.9558 -75.3408 -75.3407 -74.5723 -74.5723
    -9.1694  -6.8292  -4.2106  -4.1110  -3.6990  -3.0337  -2.9305

          k = 0.7500 0.9454 0.1869 (  4275 PWs)   bands (ev):

  -121.5250-120.6540 -76.8900 -75.9558 -75.3408 -75.3407 -74.5723 -74.5723
    -9.1718  -6.8297  -4.2109  -4.1102  -3.7022  -3.0333  -2.9303

          k = 0.7500 0.9418 0.1888 (  4276 PWs)   bands (ev):

  -121.5250-120.6540 -76.8900 -75.9558 -75.3408 -75.3407 -74.5723 -74.5723
    -9.1742  -6.8301  -4.2113  -4.1095  -3.7055  -3.0330  -2.9301

          k = 0.7500 0.9382 0.1907 (  4275 PWs)   bands (ev):

  -121.5250-120.6540 -76.8900 -75.9558 -75.3408 -75.3407 -74.5723 -74.5723
    -9.1766  -6.8306  -4.2116  -4.1087  -3.7087  -3.0326  -2.9299

          k = 0.7500 0.9346 0.1926 (  4273 PWs)   bands (ev):

  -121.5250-120.6540 -76.8900 -75.9557 -75.3408 -75.3407 -74.5723 -74.5723
    -9.1790  -6.8311  -4.2119  -4.1080  -3.7119  -3.0322  -2.9296

          k = 0.7500 0.9310 0.1945 (  4270 PWs)   bands (ev):

  -121.5250-120.6540 -76.8900 -75.9557 -75.3408 -75.3407 -74.5723 -74.5723
    -9.1815  -6.8316  -4.2122  -4.1072  -3.7151  -3.0318  -2.9294

          k = 0.7500 0.9274 0.1964 (  4272 PWs)   bands (ev):

  -121.5250-120.6540 -76.8900 -75.9557 -75.3408 -75.3407 -74.5723 -74.5723
    -9.1839  -6.8321  -4.2125  -4.1065  -3.7184  -3.0315  -2.9292

          k = 0.7500 0.9238 0.1983 (  4269 PWs)   bands (ev):

  -121.5250-120.6540 -76.8900 -75.9557 -75.3408 -75.3407 -74.5723 -74.5723
    -9.1864  -6.8326  -4.2128  -4.1057  -3.7217  -3.0310  -2.9289

          k = 0.7500 0.9202 0.2002 (  4270 PWs)   bands (ev):

  -121.5250-120.6540 -76.8900 -75.9557 -75.3408 -75.3407 -74.5723 -74.5723
    -9.1889  -6.8331  -4.2131  -4.1050  -3.7250  -3.0307  -2.9287

          k = 0.7500 0.9165 0.2021 (  4271 PWs)   bands (ev):

  -121.5250-120.6540 -76.8900 -75.9557 -75.3408 -75.3407 -74.5723 -74.5723
    -9.1914  -6.8337  -4.2133  -4.1043  -3.7283  -3.0303  -2.9285

          k = 0.7500 0.9129 0.2040 (  4272 PWs)   bands (ev):

  -121.5250-120.6540 -76.8900 -75.9557 -75.3408 -75.3407 -74.5723 -74.5723
    -9.1939  -6.8342  -4.2136  -4.1036  -3.7316  -3.0299  -2.9284

          k = 0.7500 0.9093 0.2060 (  4273 PWs)   bands (ev):

  -121.5250-120.6540 -76.8900 -75.9558 -75.3408 -75.3407 -74.5723 -74.5723
    -9.1964  -6.8347  -4.2138  -4.1029  -3.7349  -3.0295  -2.9282

          k = 0.7500 0.9057 0.2079 (  4271 PWs)   bands (ev):

  -121.5250-120.6540 -76.8900 -75.9558 -75.3408 -75.3407 -74.5723 -74.5723
    -9.1990  -6.8352  -4.2141  -4.1021  -3.7382  -3.0290  -2.9279

          k = 0.7500 0.9021 0.2098 (  4270 PWs)   bands (ev):

  -121.5250-120.6540 -76.8900 -75.9557 -75.3408 -75.3407 -74.5723 -74.5723
    -9.2015  -6.8358  -4.2144  -4.1014  -3.7414  -3.0286  -2.9276

          k = 0.7500 0.8985 0.2117 (  4270 PWs)   bands (ev):

  -121.5250-120.6540 -76.8900 -75.9557 -75.3408 -75.3407 -74.5723 -74.5723
    -9.2041  -6.8363  -4.2146  -4.1007  -3.7447  -3.0282  -2.9274

          k = 0.7500 0.8949 0.2136 (  4269 PWs)   bands (ev):

  -121.5250-120.6540 -76.8900 -75.9558 -75.3408 -75.3407 -74.5723 -74.5723
    -9.2066  -6.8368  -4.2148  -4.1000  -3.7480  -3.0278  -2.9272

          k = 0.7500 0.8913 0.2155 (  4271 PWs)   bands (ev):

  -121.5250-120.6540 -76.8900 -75.9558 -75.3408 -75.3407 -74.5723 -74.5723
    -9.2092  -6.8374  -4.2150  -4.0993  -3.7513  -3.0274  -2.9270

          k = 0.7500 0.8877 0.2174 (  4270 PWs)   bands (ev):

  -121.5250-120.6540 -76.8900 -75.9558 -75.3408 -75.3407 -74.5723 -74.5723
    -9.2118  -6.8380  -4.2152  -4.0986  -3.7546  -3.0269  -2.9268

          k = 0.7500 0.8841 0.2193 (  4269 PWs)   bands (ev):

  -121.5250-120.6540 -76.8900 -75.9558 -75.3408 -75.3407 -74.5723 -74.5723
    -9.2144  -6.8385  -4.2154  -4.0979  -3.7578  -3.0264  -2.9266

          k = 0.7500 0.8805 0.2212 (  4268 PWs)   bands (ev):

  -121.5250-120.6540 -76.8900 -75.9558 -75.3408 -75.3407 -74.5723 -74.5723
    -9.2170  -6.8390  -4.2156  -4.0973  -3.7611  -3.0259  -2.9264

          k = 0.7500 0.8769 0.2231 (  4270 PWs)   bands (ev):

  -121.5250-120.6540 -76.8900 -75.9558 -75.3408 -75.3407 -74.5723 -74.5723
    -9.2196  -6.8396  -4.2157  -4.0966  -3.7644  -3.0255  -2.9262

          k = 0.7500 0.8732 0.2250 (  4271 PWs)   bands (ev):

  -121.5250-120.6540 -76.8900 -75.9558 -75.3408 -75.3407 -74.5723 -74.5723
    -9.2222  -6.8402  -4.2159  -4.0960  -3.7676  -3.0250  -2.9260

          k = 0.7500 0.8696 0.2269 (  4270 PWs)   bands (ev):

  -121.5250-120.6540 -76.8900 -75.9558 -75.3408 -75.3407 -74.5723 -74.5723
    -9.2247  -6.8407  -4.2160  -4.0953  -3.7708  -3.0245  -2.9259

          k = 0.7500 0.8660 0.2288 (  4271 PWs)   bands (ev):

  -121.5250-120.6540 -76.8900 -75.9558 -75.3408 -75.3407 -74.5723 -74.5723
    -9.2273  -6.8413  -4.2162  -4.0947  -3.7740  -3.0240  -2.9258

          k = 0.7312 0.8444 0.2231 (  4269 PWs)   bands (ev):

  -121.5250-120.6540 -76.8900 -75.9558 -75.3408 -75.3407 -74.5723 -74.5723
    -9.2310  -6.8420  -4.2185  -4.0911  -3.7789  -3.0245  -2.9238

          k = 0.7125 0.8227 0.2174 (  4265 PWs)   bands (ev):

  -121.5250-120.6540 -76.8900 -75.9558 -75.3408 -75.3407 -74.5723 -74.5723
    -9.2326  -6.8422  -4.2208  -4.0877  -3.7813  -3.0255  -2.9219

          k = 0.6937 0.8011 0.2117 (  4270 PWs)   bands (ev):

  -121.5250-120.6540 -76.8900 -75.9558 -75.3408 -75.3407 -74.5723 -74.5723
    -9.2320  -6.8421  -4.2228  -4.0854  -3.7811  -3.0268  -2.9206

          k = 0.6750 0.7794 0.2060 (  4272 PWs)   bands (ev):

  -121.5250-120.6540 -76.8900 -75.9558 -75.3408 -75.3407 -74.5723 -74.5723
    -9.2293  -6.8415  -4.2242  -4.0844  -3.7780  -3.0281  -2.9199

          k = 0.6562 0.7578 0.2002 (  4274 PWs)   bands (ev):

  -121.5250-120.6540 -76.8900 -75.9558 -75.3408 -75.3407 -74.5723 -74.5723
    -9.2244  -6.8405  -4.2247  -4.0847  -3.7720  -3.0295  -2.9198

          k = 0.6375 0.7361 0.1945 (  4272 PWs)   bands (ev):

  -121.5250-120.6540 -76.8900 -75.9558 -75.3408 -75.3407 -74.5723 -74.5723
    -9.2175  -6.8390  -4.2243  -4.0866  -3.7632  -3.0307  -2.9203

          k = 0.6188 0.7145 0.1888 (  4272 PWs)   bands (ev):

  -121.5250-120.6540 -76.8900 -75.9558 -75.3408 -75.3407 -74.5723 -74.5723
    -9.2088  -6.8372  -4.2230  -4.0899  -3.7518  -3.0317  -2.9215

          k = 0.6000 0.6928 0.1831 (  4267 PWs)   bands (ev):

  -121.5250-120.6540 -76.8900 -75.9557 -75.3408 -75.3407 -74.5723 -74.5723
    -9.1986  -6.8350  -4.2209  -4.0943  -3.7380  -3.0328  -2.9230

          k = 0.5813 0.6712 0.1773 (  4273 PWs)   bands (ev):

  -121.5250-120.6540 -76.8900 -75.9558 -75.3408 -75.3407 -74.5723 -74.5723
    -9.1870  -6.8327  -4.2182  -4.0995  -3.7227  -3.0338  -2.9253

          k = 0.5625 0.6495 0.1716 (  4273 PWs)   bands (ev):

  -121.5250-120.6540 -76.8900 -75.9558 -75.3408 -75.3407 -74.5723 -74.5723
    -9.1747  -6.8302  -4.2148  -4.1053  -3.7058  -3.0346  -2.9276

          k = 0.5437 0.6279 0.1659 (  4277 PWs)   bands (ev):

  -121.5250-120.6540 -76.8900 -75.9558 -75.3408 -75.3407 -74.5723 -74.5723
    -9.1619  -6.8276  -4.2114  -4.1113  -3.6881  -3.0356  -2.9298

          k = 0.5250 0.6062 0.1602 (  4281 PWs)   bands (ev):

  -121.5250-120.6540 -76.8900 -75.9558 -75.3408 -75.3407 -74.5723 -74.5723
    -9.1492  -6.8251  -4.2079  -4.1170  -3.6703  -3.0367  -2.9319

          k = 0.5062 0.5846 0.1545 (  4278 PWs)   bands (ev):

  -121.5250-120.6540 -76.8900 -75.9558 -75.3408 -75.3408 -74.5723 -74.5723
    -9.1370  -6.8227  -4.2048  -4.1222  -3.6531  -3.0379  -2.9335

          k = 0.4875 0.5629 0.1487 (  4282 PWs)   bands (ev):

  -121.5250-120.6540 -76.8900 -75.9558 -75.3408 -75.3408 -74.5723 -74.5723
    -9.1259  -6.8206  -4.2025  -4.1263  -3.6371  -3.0392  -2.9347

          k = 0.4688 0.5413 0.1430 (  4286 PWs)   bands (ev):

  -121.5250-120.6540 -76.8900 -75.9558 -75.3408 -75.3408 -74.5723 -74.5723
    -9.1164  -6.8189  -4.2012  -4.1290  -3.6234  -3.0406  -2.9353

          k = 0.4500 0.5196 0.1373 (  4288 PWs)   bands (ev):

  -121.5250-120.6540 -76.8900 -75.9558 -75.3408 -75.3408 -74.5723 -74.5723
    -9.1091  -6.8176  -4.2011  -4.1301  -3.6125  -3.0420  -2.9352

          k = 0.4312 0.4980 0.1316 (  4283 PWs)   bands (ev):

  -121.5250-120.6540 -76.8900 -75.9558 -75.3408 -75.3408 -74.5723 -74.5723
    -9.1043  -6.8168  -4.2020  -4.1297  -3.6053  -3.0430  -2.9346

          k = 0.4125 0.4763 0.1259 (  4284 PWs)   bands (ev):

  -121.5250-120.6540 -76.8900 -75.9558 -75.3408 -75.3408 -74.5723 -74.5723
    -9.1024  -6.8165  -4.2039  -4.1281  -3.6025  -3.0439  -2.9338

          k = 0.3937 0.4547 0.1201 (  4282 PWs)   bands (ev):

  -121.5250-120.6540 -76.8900 -75.9557 -75.3408 -75.3408 -74.5723 -74.5723
    -9.1039  -6.8169  -4.2063  -4.1254  -3.6046  -3.0444  -2.9326

          k = 0.3750 0.4330 0.1144 (  4286 PWs)   bands (ev):

  -121.5250-120.6540 -76.8900 -75.9558 -75.3408 -75.3408 -74.5723 -74.5723
    -9.1090  -6.8179  -4.2089  -4.1220  -3.6119  -3.0444  -2.9313

          k = 0.3562 0.4114 0.1087 (  4285 PWs)   bands (ev):

  -121.5250-120.6540 -76.8900 -75.9558 -75.3408 -75.3408 -74.5723 -74.5723
    -9.1177  -6.8195  -4.2113  -4.1183  -3.6244  -3.0438  -2.9298

          k = 0.3375 0.3897 0.1030 (  4286 PWs)   bands (ev):

  -121.5250-120.6540 -76.8900 -75.9558 -75.3408 -75.3407 -74.5723 -74.5723
    -9.1302  -6.8218  -4.2134  -4.1143  -3.6419  -3.0425  -2.9283

          k = 0.3187 0.3681 0.0973 (  4278 PWs)   bands (ev):

  -121.5250-120.6540 -76.8900 -75.9558 -75.3408 -75.3407 -74.5723 -74.5723
    -9.1463  -6.8246  -4.2148  -4.1101  -3.6639  -3.0400  -2.9268

          k = 0.3000 0.3464 0.0915 (  4277 PWs)   bands (ev):

  -121.5250-120.6540 -76.8900 -75.9558 -75.3408 -75.3407 -74.5723 -74.5723
    -9.1657  -6.8279  -4.2157  -4.1059  -3.6895  -3.0368  -2.9255

          k = 0.2812 0.3248 0.0858 (  4272 PWs)   bands (ev):

  -121.5250-120.6540 -76.8900 -75.9558 -75.3408 -75.3407 -74.5723 -74.5723
    -9.1883  -6.8317  -4.2158  -4.1018  -3.7181  -3.0324  -2.9243

          k = 0.2625 0.3031 0.0801 (  4269 PWs)   bands (ev):

  -121.5250-120.6540 -76.8900 -75.9558 -75.3408 -75.3407 -74.5723 -74.5723
    -9.2134  -6.8358  -4.2152  -4.0977  -3.7488  -3.0270  -2.9234

          k = 0.2437 0.2815 0.0744 (  4268 PWs)   bands (ev):

  -121.5250-120.6540 -76.8900 -75.9558 -75.3408 -75.3407 -74.5723 -74.5723
    -9.2408  -6.8403  -4.2140  -4.0938  -3.7807  -3.0207  -2.9226

          k = 0.2250 0.2598 0.0687 (  4266 PWs)   bands (ev):

  -121.5250-120.6540 -76.8900 -75.9557 -75.3408 -75.3407 -74.5723 -74.5723
    -9.2696  -6.8450  -4.2118  -4.0902  -3.8129  -3.0133  -2.9221

          k = 0.2062 0.2382 0.0629 (  4260 PWs)   bands (ev):

  -121.5250-120.6540 -76.8900 -75.9557 -75.3408 -75.3407 -74.5723 -74.5723
    -9.2993  -6.8498  -4.2088  -4.0866  -3.8449  -3.0049  -2.9216

          k = 0.1875 0.2165 0.0572 (  4261 PWs)   bands (ev):

  -121.5250-120.6540 -76.8900 -75.9557 -75.3408 -75.3407 -74.5723 -74.5722
    -9.3292  -6.8546  -4.2051  -4.0834  -3.8761  -2.9959  -2.9216

          k = 0.1687 0.1949 0.0515 (  4262 PWs)   bands (ev):

  -121.5250-120.6540 -76.8900 -75.9557 -75.3407 -75.3407 -74.5723 -74.5722
    -9.3588  -6.8593  -4.2007  -4.0805  -3.9061  -2.9864  -2.9216

          k = 0.1500 0.1732 0.0458 (  4254 PWs)   bands (ev):

  -121.5250-120.6540 -76.8900 -75.9557 -75.3407 -75.3407 -74.5723 -74.5722
    -9.3872  -6.8639  -4.1953  -4.0779  -3.9343  -2.9761  -2.9217

          k = 0.1312 0.1516 0.0400 (  4248 PWs)   bands (ev):

  -121.5250-120.6540 -76.8900 -75.9557 -75.3407 -75.3407 -74.5723 -74.5722
    -9.4139  -6.8682  -4.1894  -4.0756  -3.9607  -2.9661  -2.9220

          k = 0.1125 0.1299 0.0343 (  4254 PWs)   bands (ev):

  -121.5250-120.6540 -76.8900 -75.9557 -75.3407 -75.3407 -74.5723 -74.5722
    -9.4383  -6.8721  -4.1830  -4.0737  -3.9850  -2.9564  -2.9223

          k = 0.0938 0.1083 0.0286 (  4249 PWs)   bands (ev):

  -121.5250-120.6540 -76.8900 -75.9557 -75.3407 -75.3407 -74.5722 -74.5722
    -9.4599  -6.8756  -4.1760  -4.0722  -4.0069  -2.9474  -2.9227

          k = 0.0750 0.0866 0.0229 (  4246 PWs)   bands (ev):

  -121.5250-120.6540 -76.8900 -75.9557 -75.3407 -75.3407 -74.5722 -74.5722
    -9.4782  -6.8786  -4.1688  -4.0710  -4.0264  -2.9394  -2.9231

          k = 0.0562 0.0650 0.0172 (  4254 PWs)   bands (ev):

  -121.5250-120.6540 -76.8900 -75.9557 -75.3407 -75.3407 -74.5722 -74.5722
    -9.4928  -6.8810  -4.1616  -4.0701  -4.0434  -2.9331  -2.9236

          k = 0.0375 0.0433 0.0114 (  4250 PWs)   bands (ev):

  -121.5250-120.6540 -76.8900 -75.9557 -75.3407 -75.3407 -74.5722 -74.5722
    -9.5035  -6.8827  -4.1551  -4.0694  -4.0567  -2.9280  -2.9238

          k = 0.0187 0.0217 0.0057 (  4257 PWs)   bands (ev):

  -121.5250-120.6540 -76.8900 -75.9557 -75.3407 -75.3407 -74.5722 -74.5722
    -9.5100  -6.8837  -4.1503  -4.0691  -4.0657  -2.9251  -2.9240

          k = 0.0000 0.0000 0.0000 (  4247 PWs)   bands (ev):

  -121.5250-120.6540 -76.8900 -75.9557 -75.3407 -75.3407 -74.5722 -74.5722
    -9.5122  -6.8840  -4.1482  -4.0689  -4.0689  -2.9239  -2.9239

     Writing all to output data dir ./SCRATCH/zns_w.save/

     init_run     :      0.12s CPU      0.16s WALL (       1 calls)
     electrons    :    378.02s CPU    383.45s WALL (       1 calls)

     Called by init_run:
     wfcinit      :      0.00s CPU      0.00s WALL (       1 calls)
     wfcinit:wfcr :      5.16s CPU      5.43s WALL (     201 calls)
     potinit      :      0.02s CPU      0.04s WALL (       1 calls)
     hinit0       :      0.03s CPU      0.04s WALL (       1 calls)

     Called by electrons:
     c_bands      :    378.02s CPU    383.45s WALL (       1 calls)
     v_of_rho     :      0.02s CPU      0.04s WALL (       1 calls)
     v_h          :      0.00s CPU      0.00s WALL (       1 calls)
     v_xc         :      0.02s CPU      0.03s WALL (       1 calls)

     Called by c_bands:
     init_us_2    :      0.16s CPU      0.21s WALL (     201 calls)
     init_us_2:cp :      0.16s CPU      0.21s WALL (     201 calls)
     cegterg      :    371.34s CPU    376.32s WALL (    1195 calls)

     Called by sum_band:

     Called by *egterg:
     cdiaghg      :      4.05s CPU      4.21s WALL (   22467 calls)
     cegterg:over :     37.28s CPU     37.55s WALL (   22266 calls)
     cegterg:upda :     18.70s CPU     19.36s WALL (   22266 calls)
     cegterg:last :     32.97s CPU     31.93s WALL (   11681 calls)
     h_psi        :    276.47s CPU    280.17s WALL (   23662 calls)
     g_psi        :      1.64s CPU      1.90s WALL (   22266 calls)

     Called by h_psi:
     h_psi:calbec :     42.94s CPU     43.05s WALL (   23662 calls)
     vloc_psi     :    203.41s CPU    203.57s WALL (   23662 calls)
     add_vuspsi   :     29.16s CPU     30.14s WALL (   23662 calls)

     General routines
     calbec       :     42.91s CPU     42.95s WALL (   23662 calls)
     fft          :      0.00s CPU      0.01s WALL (      10 calls)
     fftw         :    183.55s CPU    183.36s WALL (  360516 calls)
     davcio       :      0.00s CPU      0.10s WALL (     402 calls)


     PWSCF        :   6m18.23s CPU   6m23.89s WALL


   This run was terminated on:  12: 9:42  10Jun2024            

=------------------------------------------------------------------------------=
   JOB DONE.
=------------------------------------------------------------------------------=
