
     Program PWSCF v.7.2 starts on  9Jun2024 at 12:16:11 

     This program is part of the open-source Quantum ESPRESSO suite
     for quantum simulation of materials; please cite
         "P. Giannozzi et al., J. Phys.:Condens. Matter 21 395502 (2009);
         "P. Giannozzi et al., J. Phys.:Condens. Matter 29 465901 (2017);
         "P. Giannozzi et al., J. Chem. Phys. 152 154105 (2020);
          URL http://www.quantum-espresso.org", 
     in publications or presentations arising from this work. More details at
     http://www.quantum-espresso.org/quote

     Serial version
     8611 MiB available memory on the printing compute node when the environment starts

     Waiting for input...
     Reading input from standard input

     Current dimensions of program PWSCF are:
     Max number of different atomic species (ntypx) = 10
     Max number of k-points (npk) =  40000
     Max angular momentum in pseudopotentials (lmaxx) =  4


     G-vector sticks info
     --------------------
     sticks:   dense  smooth     PW     G-vecs:    dense   smooth      PW
     Sum         859     859    253                33449    33449    5299

     Using Slab Decomposition



     bravais-lattice index     =            4
     lattice parameter (alat)  =       7.2188  a.u.
     unit-cell volume          =     533.8610 (a.u.)^3
     number of atoms/cell      =            4
     number of atomic types    =            2
     number of electrons       =        52.00
     number of Kohn-Sham states=           26
     kinetic-energy cutoff     =      60.0000  Ry
     charge density cutoff     =     240.0000  Ry
     scf convergence threshold =      1.0E-08
     mixing beta               =       0.7000
     number of iterations used =            8  plain     mixing
     Exchange-correlation= PBE
                           (   1   4   3   4   0   0   0)

     celldm(1)=   7.218753  celldm(2)=   0.000000  celldm(3)=   1.638743
     celldm(4)=   0.000000  celldm(5)=   0.000000  celldm(6)=   0.000000

     crystal axes: (cart. coord. in units of alat)
               a(1) = (   1.000000   0.000000   0.000000 )  
               a(2) = (  -0.500000   0.866025   0.000000 )  
               a(3) = (   0.000000   0.000000   1.638743 )  

     reciprocal axes: (cart. coord. in units 2 pi/alat)
               b(1) = (  1.000000  0.577350 -0.000000 )  
               b(2) = (  0.000000  1.154701  0.000000 )  
               b(3) = (  0.000000 -0.000000  0.610224 )  


     PseudoPot. # 1 for Zn read from file:
     /home/paolo/project_labqsm/pseudopotentials/Zn_ONCV_PBE-1.2.upf
     MD5 check sum: 732f41c0cd6489a4b50a33b4ec99a2d3
     Pseudo is Norm-conserving, Zval = 20.0
     Generated using ONCVPSP code by D. R. Hamann
     Using radial grid of  602 points,  6 beta functions with: 
                l(1) =   0
                l(2) =   0
                l(3) =   1
                l(4) =   1
                l(5) =   2
                l(6) =   2

     PseudoPot. # 2 for S  read from file:
     /home/paolo/project_labqsm/pseudopotentials/S_ONCV_PBE-1.2.upf
     MD5 check sum: f9d020296ee6110346977bfd66d424f6
     Pseudo is Norm-conserving, Zval =  6.0
     Generated using ONCVPSP code by D. R. Hamann
     Using radial grid of  602 points,  4 beta functions with: 
                l(1) =   0
                l(2) =   0
                l(3) =   1
                l(4) =   1

     atomic species   valence    mass     pseudopotential
        Zn            20.00    65.38000     Zn( 1.00)
        S              6.00    32.06000     S ( 1.00)

      6 Sym. Ops. (no inversion) found



   Cartesian axes

     site n.     atom                  positions (alat units)
         1           Zn  tau(   1) = (   0.0000000   0.0000000   0.0000000  )
         2           S   tau(   2) = (   0.0000000   0.0000000   0.3723729  )
         3           Zn  tau(   3) = (   0.0000000   0.5773503   0.5000000  )
         4           S   tau(   4) = (   0.0000000   0.5773503   0.8723729  )

     number of k points=    34
                       cart. coord. in units 2pi/alat
        k(    1) = (   0.0000000   0.0000000   0.0000000), wk =   0.0092593
        k(    2) = (   0.0000000   0.0000000   0.1017039), wk =   0.0185185
        k(    3) = (   0.0000000   0.0000000   0.2034079), wk =   0.0185185
        k(    4) = (   0.0000000   0.0000000  -0.3051118), wk =   0.0092593
        k(    5) = (   0.0000000   0.1924501   0.0000000), wk =   0.0555556
        k(    6) = (   0.0000000   0.1924501   0.1017039), wk =   0.0555556
        k(    7) = (   0.0000000   0.1924501   0.2034079), wk =   0.0555556
        k(    8) = (   0.0000000   0.1924501  -0.3051118), wk =   0.0555556
        k(    9) = (   0.0000000   0.3849002   0.0000000), wk =   0.0555556
        k(   10) = (   0.0000000   0.3849002   0.1017039), wk =   0.0555556
        k(   11) = (   0.0000000   0.3849002   0.2034079), wk =   0.0555556
        k(   12) = (   0.0000000   0.3849002  -0.3051118), wk =   0.0555556
        k(   13) = (   0.0000000  -0.5773503   0.0000000), wk =   0.0277778
        k(   14) = (   0.0000000  -0.5773503   0.1017039), wk =   0.0555556
        k(   15) = (   0.0000000  -0.5773503   0.2034079), wk =   0.0555556
        k(   16) = (   0.0000000  -0.5773503  -0.3051118), wk =   0.0277778
        k(   17) = (   0.1666667   0.2886751   0.0000000), wk =   0.0555556
        k(   18) = (   0.1666667   0.2886751   0.1017039), wk =   0.1111111
        k(   19) = (   0.1666667   0.2886751   0.2034079), wk =   0.1111111
        k(   20) = (   0.1666667   0.2886751  -0.3051118), wk =   0.0555556
        k(   21) = (   0.1666667   0.4811252   0.0000000), wk =   0.1111111
        k(   22) = (   0.1666667   0.4811252   0.1017039), wk =   0.1111111
        k(   23) = (   0.1666667   0.4811252   0.2034079), wk =   0.1111111
        k(   24) = (   0.1666667   0.4811252  -0.3051118), wk =   0.1111111
        k(   25) = (   0.3333333   0.5773503   0.0000000), wk =   0.0185185
        k(   26) = (   0.3333333   0.5773503   0.1017039), wk =   0.0370370
        k(   27) = (   0.3333333   0.5773503   0.2034079), wk =   0.0370370
        k(   28) = (   0.3333333   0.5773503  -0.3051118), wk =   0.0185185
        k(   29) = (   0.0000000  -0.1924501   0.1017039), wk =   0.0555556
        k(   30) = (   0.0000000  -0.1924501   0.2034079), wk =   0.0555556
        k(   31) = (   0.0000000  -0.3849002   0.1017039), wk =   0.0555556
        k(   32) = (   0.0000000  -0.3849002   0.2034079), wk =   0.0555556
        k(   33) = (  -0.1666667  -0.4811252   0.1017039), wk =   0.1111111
        k(   34) = (  -0.1666667  -0.4811252   0.2034079), wk =   0.1111111

     Dense  grid:    33449 G-vectors     FFT dimensions: (  36,  36,  60)

     Estimated max dynamical RAM per process >      91.05 MB

     Initial potential from superposition of free atoms

     starting charge      51.9339, renormalised to      52.0000
     Starting wfcs are random

     total cpu time spent up to now is        2.0 secs

     Self-consistent Calculation

     iteration #  1     ecut=    60.00 Ry     beta= 0.70
     Davidson diagonalization with overlap
     ethr =  1.00E-02,  avg # of iterations = 14.9

     total cpu time spent up to now is       27.8 secs

     total energy              =    -838.96141691 Ry
     estimated scf accuracy    <       1.26996175 Ry

     iteration #  2     ecut=    60.00 Ry     beta= 0.70
     Davidson diagonalization with overlap
     ethr =  2.44E-03,  avg # of iterations =  8.0

     total cpu time spent up to now is       35.4 secs

     total energy              =    -838.43569842 Ry
     estimated scf accuracy    <       6.73992282 Ry

     iteration #  3     ecut=    60.00 Ry     beta= 0.70
     Davidson diagonalization with overlap
     ethr =  2.44E-03,  avg # of iterations =  6.0

     total cpu time spent up to now is       42.0 secs

     total energy              =    -839.62858794 Ry
     estimated scf accuracy    <       0.34415836 Ry

     iteration #  4     ecut=    60.00 Ry     beta= 0.70
     Davidson diagonalization with overlap
     ethr =  6.62E-04,  avg # of iterations =  2.1

     total cpu time spent up to now is       47.2 secs

     total energy              =    -839.64549342 Ry
     estimated scf accuracy    <       0.07342810 Ry

     iteration #  5     ecut=    60.00 Ry     beta= 0.70
     Davidson diagonalization with overlap
     ethr =  1.41E-04,  avg # of iterations =  4.2

     total cpu time spent up to now is       52.5 secs

     total energy              =    -839.65367877 Ry
     estimated scf accuracy    <       0.00515848 Ry

     iteration #  6     ecut=    60.00 Ry     beta= 0.70
     Davidson diagonalization with overlap
     ethr =  9.92E-06,  avg # of iterations =  4.7

     total cpu time spent up to now is       58.5 secs

     total energy              =    -839.65490221 Ry
     estimated scf accuracy    <       0.00093875 Ry

     iteration #  7     ecut=    60.00 Ry     beta= 0.70
     Davidson diagonalization with overlap
     ethr =  1.81E-06,  avg # of iterations =  3.7

     total cpu time spent up to now is       64.4 secs

     total energy              =    -839.65512042 Ry
     estimated scf accuracy    <       0.00022055 Ry

     iteration #  8     ecut=    60.00 Ry     beta= 0.70
     Davidson diagonalization with overlap
     ethr =  4.24E-07,  avg # of iterations =  3.3

     total cpu time spent up to now is       69.6 secs

     total energy              =    -839.65514220 Ry
     estimated scf accuracy    <       0.00001549 Ry

     iteration #  9     ecut=    60.00 Ry     beta= 0.70
     Davidson diagonalization with overlap
     ethr =  2.98E-08,  avg # of iterations =  5.3

     total cpu time spent up to now is       76.0 secs

     total energy              =    -839.65514825 Ry
     estimated scf accuracy    <       0.00000532 Ry

     iteration # 10     ecut=    60.00 Ry     beta= 0.70
     Davidson diagonalization with overlap
     ethr =  1.02E-08,  avg # of iterations =  3.8

     total cpu time spent up to now is       81.1 secs

     total energy              =    -839.65514874 Ry
     estimated scf accuracy    <       0.00000028 Ry

     iteration # 11     ecut=    60.00 Ry     beta= 0.70
     Davidson diagonalization with overlap
     ethr =  5.42E-10,  avg # of iterations =  5.2

     total cpu time spent up to now is       87.0 secs

     total energy              =    -839.65514884 Ry
     estimated scf accuracy    <       0.00000010 Ry

     iteration # 12     ecut=    60.00 Ry     beta= 0.70
     Davidson diagonalization with overlap
     ethr =  1.86E-10,  avg # of iterations =  2.9

     total cpu time spent up to now is       92.0 secs

     End of self-consistent calculation

          k = 0.0000 0.0000 0.0000 (  4199 PWs)   bands (ev):

  -121.3690-120.5333 -76.7724 -75.8729 -75.1738 -75.1738 -74.4453 -74.4453
    -9.3730  -6.7507  -4.0496  -3.9642  -3.9642  -2.8408  -2.8408  -1.5613
    -1.5613  -1.3293  -1.3293  -1.2678   2.4645   4.7439   4.7439   7.2995
     8.2209   8.2209

          k = 0.0000 0.0000 0.1017 (  4157 PWs)   bands (ev):

  -121.3690-120.5333 -76.7724 -75.8729 -75.1738 -75.1738 -74.4453 -74.4453
    -9.3700  -6.7544  -4.0518  -3.9634  -3.9634  -2.8405  -2.8405  -1.5607
    -1.5607  -1.3285  -1.3285  -1.3102   2.6529   4.7508   4.7508   6.8384
     8.2062   8.2062

          k = 0.0000 0.0000 0.2034 (  4181 PWs)   bands (ev):

  -121.3690-120.5333 -76.7724 -75.8730 -75.1738 -75.1738 -74.4453 -74.4453
    -9.3640  -6.7618  -4.0578  -3.9637  -3.9637  -2.8424  -2.8424  -1.5603
    -1.5603  -1.3892  -1.3281  -1.3281   3.0920   4.7636   4.7636   6.0944
     8.1754   8.1754

          k = 0.0000 0.0000-0.3051 (  4194 PWs)   bands (ev):

  -121.3690-120.5333 -76.7724 -75.8729 -75.1738 -75.1738 -74.4453 -74.4453
    -9.3609  -6.7655  -4.0596  -3.9640  -3.9640  -2.8435  -2.8435  -1.5604
    -1.5604  -1.4257  -1.3283  -1.3283   3.3722   4.7698   4.7698   5.7080
     8.1596   8.1596

          k = 0.0000 0.1925 0.0000 (  4161 PWs)   bands (ev):

  -121.3690-120.5333 -76.7723 -75.8729 -75.1738 -75.1738 -74.4453 -74.4453
    -9.2786  -6.7353  -4.0890  -3.9689  -3.8607  -2.8818  -2.8372  -1.5757
    -1.5483  -1.4447  -1.2794  -1.0320   2.6618   3.6510   4.3467   7.1198
     7.9173   8.3821

          k = 0.0000 0.1925 0.1017 (  4181 PWs)   bands (ev):

  -121.3690-120.5333 -76.7724 -75.8729 -75.1738 -75.1738 -74.4453 -74.4453
    -9.2761  -6.7380  -4.0907  -3.9693  -3.8615  -2.8824  -2.8387  -1.5760
    -1.5485  -1.4494  -1.2795  -1.0606   2.7872   3.6575   4.3555   7.1333
     7.6558   8.3456

          k = 0.0000 0.1925 0.2034 (  4186 PWs)   bands (ev):

  -121.3690-120.5333 -76.7724 -75.8729 -75.1738 -75.1738 -74.4453 -74.4453
    -9.2709  -6.7437  -4.0941  -3.9691  -3.8635  -2.8836  -2.8401  -1.5788
    -1.5482  -1.4576  -1.2792  -1.1131   3.0491   3.7042   4.3720   6.7154
     7.6340   8.2892

          k = 0.0000 0.1925-0.3051 (  4180 PWs)   bands (ev):

  -121.3690-120.5333 -76.7724 -75.8729 -75.1738 -75.1738 -74.4453 -74.4453
    -9.2683  -6.7465  -4.0954  -3.9691  -3.8641  -2.8843  -2.8409  -1.5818
    -1.5479  -1.4607  -1.2788  -1.1370   3.1773   3.7647   4.3790   6.4058
     7.7094   8.2683

          k = 0.0000 0.3849 0.0000 (  4210 PWs)   bands (ev):

  -121.3690-120.5333 -76.7724 -75.8729 -75.1739 -75.1738 -74.4454 -74.4453
    -9.0814  -6.7044  -4.1245  -3.9806  -3.6564  -2.9489  -2.8322  -1.6053
    -1.5234  -1.5076  -1.1723  -0.7983   2.1579   3.2830   3.6976   6.2653
     7.5602   8.4946

          k = 0.0000 0.3849 0.1017 (  4192 PWs)   bands (ev):

  -121.3690-120.5333 -76.7724 -75.8729 -75.1739 -75.1738 -74.4454 -74.4453
    -9.0798  -6.7053  -4.1250  -3.9803  -3.6578  -2.9486  -2.8333  -1.6021
    -1.5230  -1.5068  -1.1717  -0.8073   2.0839   3.3562   3.7085   6.5510
     7.4457   8.4370

          k = 0.0000 0.3849 0.2034 (  4177 PWs)   bands (ev):

  -121.3690-120.5333 -76.7724 -75.8729 -75.1739 -75.1738 -74.4454 -74.4453
    -9.0767  -6.7071  -4.1261  -3.9799  -3.6607  -2.9491  -2.8353  -1.6051
    -1.5226  -1.4944  -1.1711  -0.8321   1.9822   3.4996   3.7288   6.8872
     7.3550   8.3379

          k = 0.0000 0.3849-0.3051 (  4190 PWs)   bands (ev):

  -121.3690-120.5333 -76.7724 -75.8729 -75.1739 -75.1738 -74.4454 -74.4453
    -9.0752  -6.7080  -4.1268  -3.9797  -3.6628  -2.9503  -2.8360  -1.6106
    -1.5225  -1.4836  -1.1710  -0.8480   1.9484   3.5767   3.7382   6.7678
     7.4961   8.2953

          k = 0.0000-0.5774 0.0000 (  4168 PWs)   bands (ev):

  -121.3690-120.5333 -76.7723 -75.8729 -75.1739 -75.1739 -74.4454 -74.4453
    -8.9780  -6.6887  -4.1361  -3.9861  -3.5250  -2.9732  -2.8291  -1.6164
    -1.5099  -1.5072  -1.1123  -0.8071   1.7216   3.4153   3.5231   6.3556
     6.6610   8.4956

          k = 0.0000-0.5774 0.1017 (  4198 PWs)   bands (ev):

  -121.3690-120.5333 -76.7724 -75.8729 -75.1739 -75.1739 -74.4454 -74.4453
    -8.9772  -6.6888  -4.1370  -3.9860  -3.5279  -2.9745  -2.8306  -1.6176
    -1.5100  -1.4972  -1.1125  -0.8070   1.6549   3.4256   3.5140   6.3635
     6.9674   8.4339

          k = 0.0000-0.5774 0.2034 (  4202 PWs)   bands (ev):

  -121.3690-120.5333 -76.7724 -75.8729 -75.1739 -75.1739 -74.4454 -74.4453
    -8.9753  -6.6885  -4.1375  -3.9855  -3.5321  -2.9759  -2.8329  -1.6193
    -1.5099  -1.4760  -1.1124  -0.8065   1.5330   3.4472   3.4794   6.6632
     7.3161   8.3168

          k = 0.0000-0.5774-0.3051 (  4184 PWs)   bands (ev):

  -121.3690-120.5333 -76.7724 -75.8729 -75.1739 -75.1739 -74.4454 -74.4453
    -8.9743  -6.6884  -4.1374  -3.9850  -3.5342  -2.9761  -2.8335  -1.6199
    -1.5097  -1.4653  -1.1122  -0.8062   1.4765   3.4566   3.4583   7.0906
     7.1768   8.2611

          k = 0.1667 0.2887 0.0000 (  4195 PWs)   bands (ev):

  -121.3690-120.5333 -76.7724 -75.8729 -75.1739 -75.1738 -74.4453 -74.4453
    -9.1322  -6.7120  -4.1093  -3.9879  -3.7101  -2.9296  -2.8388  -1.5860
    -1.5520  -1.4930  -1.1949  -0.8290   2.5790   3.1722   3.5254   6.6283
     7.8799   8.2271

          k = 0.1667 0.2887 0.1017 (  4175 PWs)   bands (ev):

  -121.3690-120.5333 -76.7723 -75.8729 -75.1739 -75.1738 -74.4453 -74.4453
    -9.1304  -6.7133  -4.1098  -3.9876  -3.7113  -2.9296  -2.8394  -1.5886
    -1.5485  -1.4911  -1.1945  -0.8474   2.5087   3.2888   3.5603   6.6289
     7.9229   8.1786

          k = 0.1667 0.2887 0.2034 (  4184 PWs)   bands (ev):

  -121.3690-120.5333 -76.7724 -75.8729 -75.1739 -75.1738 -74.4453 -74.4453
    -9.1267  -6.7161  -4.1118  -3.9875  -3.7140  -2.9303  -2.8417  -1.5929
    -1.5434  -1.4877  -1.1948  -0.8842   2.4220   3.4191   3.6690   6.7638
     7.7943   8.0832

          k = 0.1667 0.2887-0.3051 (  4200 PWs)   bands (ev):

  -121.3690-120.5333 -76.7724 -75.8729 -75.1739 -75.1738 -74.4453 -74.4453
    -9.1249  -6.7175  -4.1128  -3.9876  -3.7154  -2.9308  -2.8430  -1.5951
    -1.5413  -1.4858  -1.1948  -0.9024   2.3921   3.4529   3.7353   6.9863
     7.5346   8.0211

          k = 0.1667 0.4811 0.0000 (  4196 PWs)   bands (ev):

  -121.3690-120.5333 -76.7724 -75.8729 -75.1739 -75.1739 -74.4454 -74.4453
    -8.9800  -6.6879  -4.1136  -4.0103  -3.5238  -2.9640  -2.8422  -1.6028
    -1.5634  -1.4911  -1.1091  -0.7340   1.9360   2.8553   3.5261   6.3815
     7.2092   8.0248

          k = 0.1667 0.4811 0.1017 (  4206 PWs)   bands (ev):

  -121.3690-120.5333 -76.7724 -75.8729 -75.1739 -75.1739 -74.4454 -74.4453
    -8.9791  -6.6879  -4.1141  -4.0102  -3.5259  -2.9644  -2.8437  -1.5985
    -1.5604  -1.4909  -1.1095  -0.7346   1.8710   2.8538   3.5310   6.6107
     7.3016   7.9141

          k = 0.1667 0.4811 0.2034 (  4198 PWs)   bands (ev):

  -121.3690-120.5333 -76.7724 -75.8729 -75.1739 -75.1739 -74.4454 -74.4453
    -8.9772  -6.6877  -4.1146  -4.0098  -3.5300  -2.9650  -2.8462  -1.5980
    -1.5456  -1.4886  -1.1099  -0.7389   1.7595   2.8593   3.5297   7.0076
     7.5192   7.8193

          k = 0.1667 0.4811-0.3051 (  4182 PWs)   bands (ev):

  -121.3690-120.5333 -76.7724 -75.8729 -75.1739 -75.1739 -74.4454 -74.4453
    -8.9762  -6.6876  -4.1146  -4.0095  -3.5319  -2.9653  -2.8472  -1.6000
    -1.5364  -1.4858  -1.1099  -0.7426   1.7119   2.8646   3.5251   7.1446
     7.5801   7.9117

          k = 0.3333 0.5774 0.0000 (  4221 PWs)   bands (ev):

  -121.3690-120.5333 -76.7724 -75.8729 -75.1739 -75.1739 -74.4454 -74.4453
    -8.9298  -6.6790  -4.0672  -4.0648  -3.4475  -2.9643  -2.8551  -1.6136
    -1.5699  -1.4904  -1.0986  -0.6470   2.0352   2.1782   3.6177   6.6389
     7.0777   7.5836

          k = 0.3333 0.5774 0.1017 (  4224 PWs)   bands (ev):

  -121.3690-120.5333 -76.7724 -75.8729 -75.1739 -75.1739 -74.4454 -74.4453
    -8.9292  -6.6785  -4.0668  -4.0652  -3.4499  -2.9646  -2.8568  -1.6025
    -1.5697  -1.4917  -1.0988  -0.6470   2.0508   2.1043   3.5785   6.8533
     7.2615   7.4348

          k = 0.3333 0.5774 0.2034 (  4209 PWs)   bands (ev):

  -121.3690-120.5333 -76.7724 -75.8729 -75.1739 -75.1739 -74.4454 -74.4453
    -8.9278  -6.6773  -4.0661  -4.0656  -3.4544  -2.9648  -2.8600  -1.5787
    -1.5694  -1.4949  -1.0991  -0.6467   1.9660   2.0828   3.5058   7.1829
     7.3303   7.6965

          k = 0.3333 0.5774-0.3051 (  4188 PWs)   bands (ev):

  -121.3690-120.5333 -76.7723 -75.8729 -75.1739 -75.1739 -74.4454 -74.4453
    -8.9272  -6.6767  -4.0657  -4.0655  -3.4565  -2.9648  -2.8615  -1.5692
    -1.5656  -1.4972  -1.0990  -0.6464   1.9010   2.0992   3.4720   7.0728
     7.6101   7.9824

          k = 0.0000-0.1925 0.1017 (  4181 PWs)   bands (ev):

  -121.3690-120.5333 -76.7724 -75.8729 -75.1738 -75.1738 -74.4453 -74.4453
    -9.2761  -6.7380  -4.0904  -3.9694  -3.8616  -2.8826  -2.8384  -1.5785
    -1.5483  -1.4471  -1.2795  -1.0614   2.7865   3.6851   4.3529   6.7904
     8.0701   8.3600

          k = 0.0000-0.1925 0.2034 (  4186 PWs)   bands (ev):

  -121.3690-120.5333 -76.7724 -75.8729 -75.1738 -75.1738 -74.4453 -74.4453
    -9.2709  -6.7436  -4.0939  -3.9693  -3.8636  -2.8840  -2.8398  -1.5815
    -1.5481  -1.4548  -1.2792  -1.1139   3.0420   3.7455   4.3694   6.4686
     7.9060   8.3030

          k = 0.0000-0.3849 0.1017 (  4192 PWs)   bands (ev):

  -121.3690-120.5333 -76.7724 -75.8729 -75.1739 -75.1738 -74.4454 -74.4453
    -9.0798  -6.7053  -4.1245  -3.9804  -3.6581  -2.9490  -2.8332  -1.6108
    -1.5229  -1.4966  -1.1715  -0.8135   2.0999   3.4038   3.7067   6.1105
     7.8253   8.4490

          k = 0.0000-0.3849 0.2034 (  4177 PWs)   bands (ev):

  -121.3690-120.5333 -76.7724 -75.8729 -75.1739 -75.1738 -74.4454 -74.4453
    -9.0767  -6.7070  -4.1257  -3.9801  -3.6612  -2.9495  -2.8350  -1.6130
    -1.5225  -1.4847  -1.1711  -0.8381   1.9976   3.5496   3.7271   6.2866
     7.8741   8.3491

          k =-0.1667-0.4811 0.1017 (  4206 PWs)   bands (ev):

  -121.3690-120.5333 -76.7724 -75.8729 -75.1739 -75.1739 -74.4454 -74.4453
    -8.9791  -6.6879  -4.1139  -4.0103  -3.5260  -2.9646  -2.8436  -1.6050
    -1.5541  -1.4899  -1.1096  -0.7377   1.8807   2.8519   3.5422   6.4094
     7.4564   7.9681

          k =-0.1667-0.4811 0.2034 (  4198 PWs)   bands (ev):

  -121.3690-120.5333 -76.7724 -75.8729 -75.1739 -75.1739 -74.4454 -74.4453
    -8.9772  -6.6877  -4.1143  -4.0099  -3.5302  -2.9652  -2.8461  -1.6031
    -1.5411  -1.4870  -1.1100  -0.7422   1.7686   2.8576   3.5388   6.7514
     7.6262   7.9734

     highest occupied level (ev):     8.4956

!    total energy              =    -839.65514885 Ry
     estimated scf accuracy    <          5.2E-09 Ry

     The total energy is the sum of the following terms:
     one-electron contribution =    -832.69741794 Ry
     hartree contribution      =     418.77902227 Ry
     xc contribution           =     -82.82815181 Ry
     ewald contribution        =    -342.90860136 Ry

     convergence has been achieved in  12 iterations

     Writing all to output data dir ./SCRATCH/zns_w.save/

     init_run     :      1.88s CPU      1.98s WALL (       1 calls)
     electrons    :     89.36s CPU     90.05s WALL (       1 calls)

     Called by init_run:
     wfcinit      :      1.77s CPU      1.85s WALL (       1 calls)
     potinit      :      0.05s CPU      0.06s WALL (       1 calls)
     hinit0       :      0.05s CPU      0.04s WALL (       1 calls)

     Called by electrons:
     c_bands      :     82.86s CPU     83.49s WALL (      12 calls)
     sum_band     :      6.17s CPU      6.22s WALL (      12 calls)
     v_of_rho     :      0.30s CPU      0.31s WALL (      13 calls)
     mix_rho      :      0.06s CPU      0.05s WALL (      12 calls)

     Called by c_bands:
     init_us_2    :      0.72s CPU      0.85s WALL (     850 calls)
     init_us_2:cp :      0.72s CPU      0.84s WALL (     850 calls)
     cegterg      :     81.05s CPU     81.43s WALL (     408 calls)

     Called by *egterg:
     cdiaghg      :      1.45s CPU      1.50s WALL (    2586 calls)
     h_psi        :     54.55s CPU     55.09s WALL (    2620 calls)
     g_psi        :      0.23s CPU      0.29s WALL (    2178 calls)

     Called by h_psi:
     h_psi:calbec :      8.39s CPU      8.59s WALL (    2620 calls)
     vloc_psi     :     39.59s CPU     39.78s WALL (    2620 calls)
     add_vuspsi   :      6.33s CPU      6.35s WALL (    2620 calls)

     General routines
     calbec       :      8.39s CPU      8.58s WALL (    2620 calls)
     fft          :      0.03s CPU      0.10s WALL (     129 calls)
     ffts         :      0.00s CPU      0.01s WALL (      12 calls)
     fftw         :     40.28s CPU     40.44s WALL (   83342 calls)


     PWSCF        :   1m31.23s CPU   1m32.10s WALL


   This run was terminated on:  12:17:43   9Jun2024            

=------------------------------------------------------------------------------=
   JOB DONE.
=------------------------------------------------------------------------------=
