
     Program PWSCF v.7.2 starts on  9Jun2024 at 12:15:35 

     This program is part of the open-source Quantum ESPRESSO suite
     for quantum simulation of materials; please cite
         "P. Giannozzi et al., J. Phys.:Condens. Matter 21 395502 (2009);
         "P. Giannozzi et al., J. Phys.:Condens. Matter 29 465901 (2017);
         "P. Giannozzi et al., J. Chem. Phys. 152 154105 (2020);
          URL http://www.quantum-espresso.org", 
     in publications or presentations arising from this work. More details at
     http://www.quantum-espresso.org/quote

     Serial version
     8639 MiB available memory on the printing compute node when the environment starts

     Waiting for input...
     Reading input from standard input

     Current dimensions of program PWSCF are:
     Max number of different atomic species (ntypx) = 10
     Max number of k-points (npk) =  40000
     Max angular momentum in pseudopotentials (lmaxx) =  4


     G-vector sticks info
     --------------------
     sticks:   dense  smooth     PW     G-vecs:    dense   smooth      PW
     Sum         859     859    253                33449    33449    5263

     Using Slab Decomposition



     bravais-lattice index     =            4
     lattice parameter (alat)  =       7.2188  a.u.
     unit-cell volume          =     533.8610 (a.u.)^3
     number of atoms/cell      =            4
     number of atomic types    =            2
     number of electrons       =        52.00
     number of Kohn-Sham states=           26
     kinetic-energy cutoff     =      60.0000  Ry
     charge density cutoff     =     240.0000  Ry
     scf convergence threshold =      1.0E-08
     mixing beta               =       0.7000
     number of iterations used =            8  plain     mixing
     Exchange-correlation= PBE
                           (   1   4   3   4   0   0   0)

     celldm(1)=   7.218753  celldm(2)=   0.000000  celldm(3)=   1.638743
     celldm(4)=   0.000000  celldm(5)=   0.000000  celldm(6)=   0.000000

     crystal axes: (cart. coord. in units of alat)
               a(1) = (   1.000000   0.000000   0.000000 )  
               a(2) = (  -0.500000   0.866025   0.000000 )  
               a(3) = (   0.000000   0.000000   1.638743 )  

     reciprocal axes: (cart. coord. in units 2 pi/alat)
               b(1) = (  1.000000  0.577350 -0.000000 )  
               b(2) = (  0.000000  1.154701  0.000000 )  
               b(3) = (  0.000000 -0.000000  0.610224 )  


     PseudoPot. # 1 for Zn read from file:
     /home/paolo/project_labqsm/pseudopotentials/Zn_ONCV_PBE-1.2.upf
     MD5 check sum: 732f41c0cd6489a4b50a33b4ec99a2d3
     Pseudo is Norm-conserving, Zval = 20.0
     Generated using ONCVPSP code by D. R. Hamann
     Using radial grid of  602 points,  6 beta functions with: 
                l(1) =   0
                l(2) =   0
                l(3) =   1
                l(4) =   1
                l(5) =   2
                l(6) =   2

     PseudoPot. # 2 for S  read from file:
     /home/paolo/project_labqsm/pseudopotentials/S_ONCV_PBE-1.2.upf
     MD5 check sum: f9d020296ee6110346977bfd66d424f6
     Pseudo is Norm-conserving, Zval =  6.0
     Generated using ONCVPSP code by D. R. Hamann
     Using radial grid of  602 points,  4 beta functions with: 
                l(1) =   0
                l(2) =   0
                l(3) =   1
                l(4) =   1

     atomic species   valence    mass     pseudopotential
        Zn            20.00    65.38000     Zn( 1.00)
        S              6.00    32.06000     S ( 1.00)

      6 Sym. Ops. (no inversion) found



   Cartesian axes

     site n.     atom                  positions (alat units)
         1           Zn  tau(   1) = (   0.0000000   0.0000000   0.0000000  )
         2           S   tau(   2) = (   0.0000000   0.0000000   0.3723729  )
         3           Zn  tau(   3) = (   0.0000000   0.5773503   0.5000000  )
         4           S   tau(   4) = (   0.0000000   0.5773503   0.8723729  )

     number of k points=    13
                       cart. coord. in units 2pi/alat
        k(    1) = (   0.0000000   0.0000000   0.0000000), wk =   0.0312500
        k(    2) = (   0.0000000   0.0000000   0.1525559), wk =   0.0625000
        k(    3) = (   0.0000000   0.0000000  -0.3051118), wk =   0.0312500
        k(    4) = (   0.0000000   0.2886751   0.0000000), wk =   0.1875000
        k(    5) = (   0.0000000   0.2886751   0.1525559), wk =   0.1875000
        k(    6) = (   0.0000000   0.2886751  -0.3051118), wk =   0.1875000
        k(    7) = (   0.0000000  -0.5773503   0.0000000), wk =   0.0937500
        k(    8) = (   0.0000000  -0.5773503   0.1525559), wk =   0.1875000
        k(    9) = (   0.0000000  -0.5773503  -0.3051118), wk =   0.0937500
        k(   10) = (   0.2500000   0.4330127   0.0000000), wk =   0.1875000
        k(   11) = (   0.2500000   0.4330127   0.1525559), wk =   0.3750000
        k(   12) = (   0.2500000   0.4330127  -0.3051118), wk =   0.1875000
        k(   13) = (   0.0000000  -0.2886751   0.1525559), wk =   0.1875000

     Dense  grid:    33449 G-vectors     FFT dimensions: (  36,  36,  60)

     Estimated max dynamical RAM per process >      56.15 MB

     Initial potential from superposition of free atoms

     starting charge      51.9339, renormalised to      52.0000
     Starting wfcs are random

     total cpu time spent up to now is        0.9 secs

     Self-consistent Calculation

     iteration #  1     ecut=    60.00 Ry     beta= 0.70
     Davidson diagonalization with overlap
     ethr =  1.00E-02,  avg # of iterations = 14.9

     total cpu time spent up to now is       10.6 secs

     total energy              =    -838.96802801 Ry
     estimated scf accuracy    <       1.26719490 Ry

     iteration #  2     ecut=    60.00 Ry     beta= 0.70
     Davidson diagonalization with overlap
     ethr =  2.44E-03,  avg # of iterations =  8.8

     total cpu time spent up to now is       13.6 secs

     total energy              =    -838.37067478 Ry
     estimated scf accuracy    <       7.14683982 Ry

     iteration #  3     ecut=    60.00 Ry     beta= 0.70
     Davidson diagonalization with overlap
     ethr =  2.44E-03,  avg # of iterations =  6.5

     total cpu time spent up to now is       16.2 secs

     total energy              =    -839.62991417 Ry
     estimated scf accuracy    <       0.34932665 Ry

     iteration #  4     ecut=    60.00 Ry     beta= 0.70
     Davidson diagonalization with overlap
     ethr =  6.72E-04,  avg # of iterations =  2.0

     total cpu time spent up to now is       18.1 secs

     total energy              =    -839.64455441 Ry
     estimated scf accuracy    <       0.08028439 Ry

     iteration #  5     ecut=    60.00 Ry     beta= 0.70
     Davidson diagonalization with overlap
     ethr =  1.54E-04,  avg # of iterations =  3.8

     total cpu time spent up to now is       20.1 secs

     total energy              =    -839.65118082 Ry
     estimated scf accuracy    <       0.00890132 Ry

     iteration #  6     ecut=    60.00 Ry     beta= 0.70
     Davidson diagonalization with overlap
     ethr =  1.71E-05,  avg # of iterations =  4.6

     total cpu time spent up to now is       22.3 secs

     total energy              =    -839.65318398 Ry
     estimated scf accuracy    <       0.00082836 Ry

     iteration #  7     ecut=    60.00 Ry     beta= 0.70
     Davidson diagonalization with overlap
     ethr =  1.59E-06,  avg # of iterations =  4.5

     total cpu time spent up to now is       24.7 secs

     total energy              =    -839.65339192 Ry
     estimated scf accuracy    <       0.00038119 Ry

     iteration #  8     ecut=    60.00 Ry     beta= 0.70
     Davidson diagonalization with overlap
     ethr =  7.33E-07,  avg # of iterations =  3.1

     total cpu time spent up to now is       26.7 secs

     total energy              =    -839.65343104 Ry
     estimated scf accuracy    <       0.00002688 Ry

     iteration #  9     ecut=    60.00 Ry     beta= 0.70
     Davidson diagonalization with overlap
     ethr =  5.17E-08,  avg # of iterations =  5.3

     total cpu time spent up to now is       29.0 secs

     total energy              =    -839.65343987 Ry
     estimated scf accuracy    <       0.00000398 Ry

     iteration # 10     ecut=    60.00 Ry     beta= 0.70
     Davidson diagonalization with overlap
     ethr =  7.65E-09,  avg # of iterations =  3.7

     total cpu time spent up to now is       31.0 secs

     total energy              =    -839.65344028 Ry
     estimated scf accuracy    <       0.00000023 Ry

     iteration # 11     ecut=    60.00 Ry     beta= 0.70
     Davidson diagonalization with overlap
     ethr =  4.47E-10,  avg # of iterations =  5.2

     total cpu time spent up to now is       33.4 secs

     total energy              =    -839.65344035 Ry
     estimated scf accuracy    <       0.00000004 Ry

     iteration # 12     ecut=    60.00 Ry     beta= 0.70
     Davidson diagonalization with overlap
     ethr =  8.11E-11,  avg # of iterations =  3.2

     total cpu time spent up to now is       35.4 secs

     End of self-consistent calculation

          k = 0.0000 0.0000 0.0000 (  4199 PWs)   bands (ev):

  -121.3776-120.5155 -76.7820 -75.8561 -75.1816 -75.1816 -74.4272 -74.4272
    -9.3719  -6.7319  -4.0505  -3.9691  -3.9691  -2.8244  -2.8244  -1.5685
    -1.5685  -1.3143  -1.3143  -1.2571   2.4646   4.7507   4.7507   7.3088
     8.2364   8.2364

          k = 0.0000 0.0000 0.1526 (  4157 PWs)   bands (ev):

  -121.3776-120.5155 -76.7820 -75.8561 -75.1816 -75.1816 -74.4272 -74.4272
    -9.3659  -6.7391  -4.0553  -3.9685  -3.9685  -2.8249  -2.8249  -1.5677
    -1.5677  -1.3401  -1.3133  -1.3133   2.8600   4.7640   4.7640   6.4648
     8.2063   8.2063

          k = 0.0000 0.0000-0.3051 (  4194 PWs)   bands (ev):

  -121.3776-120.5155 -76.7820 -75.8561 -75.1816 -75.1816 -74.4272 -74.4272
    -9.3599  -6.7466  -4.0603  -3.9689  -3.9689  -2.8271  -2.8271  -1.5676
    -1.5676  -1.4163  -1.3133  -1.3133   3.3747   4.7765   4.7765   5.7114
     8.1750   8.1750

          k = 0.0000 0.2887 0.0000 (  4179 PWs)   bands (ev):

  -121.3776-120.5155 -76.7820 -75.8561 -75.1816 -75.1816 -74.4273 -74.4272
    -9.1811  -6.7006  -4.1129  -3.9796  -3.7672  -2.9013  -2.8183  -1.5963
    -1.5426  -1.4724  -1.2121  -0.8753   2.6554   3.1346   4.0111   6.6240
     7.9139   8.4787

          k = 0.0000 0.2887 0.1526 (  4177 PWs)   bands (ev):

  -121.3776-120.5155 -76.7820 -75.8561 -75.1816 -75.1816 -74.4273 -74.4272
    -9.1769  -6.7042  -4.1151  -3.9795  -3.7692  -2.9018  -2.8207  -1.5969
    -1.5422  -1.4720  -1.2116  -0.9190   2.5815   3.3781   4.0308   6.8998
     7.5167   8.3885

          k = 0.0000 0.2887-0.3051 (  4182 PWs)   bands (ev):

  -121.3776-120.5155 -76.7820 -75.8561 -75.1816 -75.1816 -74.4273 -74.4272
    -9.1728  -6.7081  -4.1170  -3.9792  -3.7720  -2.9029  -2.8222  -1.6036
    -1.5418  -1.4657  -1.2112  -0.9641   2.5549   3.6319   4.0482   6.6822
     7.5093   8.3186

          k = 0.0000-0.5774 0.0000 (  4168 PWs)   bands (ev):

  -121.3776-120.5155 -76.7820 -75.8561 -75.1817 -75.1816 -74.4274 -74.4273
    -8.9785  -6.6688  -4.1406  -3.9909  -3.5270  -2.9562  -2.8130  -1.6227
    -1.5165  -1.4939  -1.0969  -0.7927   1.7267   3.4216   3.5244   6.3624
     6.6694   8.5113

          k = 0.0000-0.5774 0.1526 (  4190 PWs)   bands (ev):

  -121.3776-120.5155 -76.7820 -75.8561 -75.1817 -75.1816 -74.4274 -74.4273
    -8.9767  -6.6687  -4.1416  -3.9904  -3.5319  -2.9580  -2.8153  -1.6248
    -1.5166  -1.4731  -1.0971  -0.7923   1.5972   3.4427   3.5006   6.4819
     7.1930   8.3897

          k = 0.0000-0.5774-0.3051 (  4184 PWs)   bands (ev):

  -121.3776-120.5155 -76.7820 -75.8561 -75.1817 -75.1816 -74.4274 -74.4273
    -8.9748  -6.6684  -4.1418  -3.9899  -3.5361  -2.9591  -2.8174  -1.6263
    -1.5163  -1.4517  -1.0967  -0.7919   1.4807   3.4584   3.4646   7.1015
     7.1861   8.2757

          k = 0.2500 0.4330 0.0000 (  4221 PWs)   bands (ev):

  -121.3776-120.5155 -76.7820 -75.8561 -75.1817 -75.1816 -74.4273 -74.4273
    -8.9812  -6.6677  -4.1079  -4.0263  -3.5253  -2.9435  -2.8312  -1.5991
    -1.5774  -1.4886  -1.0936  -0.6962   2.0943   2.6050   3.5276   6.4422
     7.3785   7.8724

          k = 0.2500 0.4330 0.1526 (  4216 PWs)   bands (ev):

  -121.3776-120.5155 -76.7820 -75.8561 -75.1817 -75.1816 -74.4273 -74.4273
    -8.9793  -6.6677  -4.1085  -4.0257  -3.5295  -2.9440  -2.8336  -1.5972
    -1.5652  -1.4857  -1.0940  -0.7023   1.9724   2.6067   3.5527   6.7612
     7.5413   7.8292

          k = 0.2500 0.4330-0.3051 (  4184 PWs)   bands (ev):

  -121.3776-120.5155 -76.7820 -75.8561 -75.1817 -75.1816 -74.4273 -74.4273
    -8.9773  -6.6674  -4.1086  -4.0252  -3.5331  -2.9440  -2.8361  -1.5960
    -1.5527  -1.4812  -1.0942  -0.7087   1.8606   2.6222   3.5494   7.2859
     7.4794   7.9289

          k = 0.0000-0.2887 0.1526 (  4177 PWs)   bands (ev):

  -121.3776-120.5155 -76.7820 -75.8561 -75.1816 -75.1816 -74.4273 -74.4272
    -9.1769  -6.7042  -4.1146  -3.9798  -3.7695  -2.9023  -2.8203  -1.6025
    -1.5419  -1.4660  -1.2116  -0.9221   2.5863   3.4338   4.0280   6.3621
     8.0688   8.4057

     highest occupied level (ev):     8.5113

!    total energy              =    -839.65344036 Ry
     estimated scf accuracy    <          1.2E-09 Ry

     The total energy is the sum of the following terms:
     one-electron contribution =    -832.71565382 Ry
     hartree contribution      =     418.80226737 Ry
     xc contribution           =     -82.83145255 Ry
     ewald contribution        =    -342.90860136 Ry

     convergence has been achieved in  12 iterations

     Writing all to output data dir ./SCRATCH/zns_w.save/

     init_run     :      0.78s CPU      0.85s WALL (       1 calls)
     electrons    :     34.19s CPU     34.56s WALL (       1 calls)

     Called by init_run:
     wfcinit      :      0.67s CPU      0.73s WALL (       1 calls)
     potinit      :      0.06s CPU      0.06s WALL (       1 calls)
     hinit0       :      0.05s CPU      0.04s WALL (       1 calls)

     Called by electrons:
     c_bands      :     31.52s CPU     31.83s WALL (      12 calls)
     sum_band     :      2.36s CPU      2.38s WALL (      12 calls)
     v_of_rho     :      0.28s CPU      0.31s WALL (      13 calls)
     mix_rho      :      0.05s CPU      0.05s WALL (      12 calls)

     Called by c_bands:
     init_us_2    :      0.22s CPU      0.32s WALL (     325 calls)
     init_us_2:cp :      0.22s CPU      0.32s WALL (     325 calls)
     cegterg      :     30.84s CPU     31.04s WALL (     156 calls)

     Called by *egterg:
     cdiaghg      :      0.59s CPU      0.58s WALL (    1010 calls)
     h_psi        :     21.06s CPU     20.96s WALL (    1023 calls)
     g_psi        :      0.12s CPU      0.11s WALL (     854 calls)

     Called by h_psi:
     h_psi:calbec :      3.52s CPU      3.24s WALL (    1023 calls)
     vloc_psi     :     15.09s CPU     15.26s WALL (    1023 calls)
     add_vuspsi   :      2.30s CPU      2.31s WALL (    1023 calls)

     General routines
     calbec       :      3.52s CPU      3.24s WALL (    1023 calls)
     fft          :      0.06s CPU      0.10s WALL (     129 calls)
     ffts         :      0.02s CPU      0.01s WALL (      12 calls)
     fftw         :     15.64s CPU     15.51s WALL (   31924 calls)


     PWSCF        :     34.97s CPU     35.46s WALL


   This run was terminated on:  12:16:11   9Jun2024            

=------------------------------------------------------------------------------=
   JOB DONE.
=------------------------------------------------------------------------------=
