
     Program PWSCF v.7.2 starts on  9Jun2024 at 12:17:43 

     This program is part of the open-source Quantum ESPRESSO suite
     for quantum simulation of materials; please cite
         "P. Giannozzi et al., J. Phys.:Condens. Matter 21 395502 (2009);
         "P. Giannozzi et al., J. Phys.:Condens. Matter 29 465901 (2017);
         "P. Giannozzi et al., J. Chem. Phys. 152 154105 (2020);
          URL http://www.quantum-espresso.org", 
     in publications or presentations arising from this work. More details at
     http://www.quantum-espresso.org/quote

     Serial version
     8542 MiB available memory on the printing compute node when the environment starts

     Waiting for input...
     Reading input from standard input

     Current dimensions of program PWSCF are:
     Max number of different atomic species (ntypx) = 10
     Max number of k-points (npk) =  40000
     Max angular momentum in pseudopotentials (lmaxx) =  4


     G-vector sticks info
     --------------------
     sticks:   dense  smooth     PW     G-vecs:    dense   smooth      PW
     Sum         859     859    253                33449    33449    5275

     Using Slab Decomposition



     bravais-lattice index     =            4
     lattice parameter (alat)  =       7.2188  a.u.
     unit-cell volume          =     533.8610 (a.u.)^3
     number of atoms/cell      =            4
     number of atomic types    =            2
     number of electrons       =        52.00
     number of Kohn-Sham states=           26
     kinetic-energy cutoff     =      60.0000  Ry
     charge density cutoff     =     240.0000  Ry
     scf convergence threshold =      1.0E-08
     mixing beta               =       0.7000
     number of iterations used =            8  plain     mixing
     Exchange-correlation= PBE
                           (   1   4   3   4   0   0   0)

     celldm(1)=   7.218753  celldm(2)=   0.000000  celldm(3)=   1.638743
     celldm(4)=   0.000000  celldm(5)=   0.000000  celldm(6)=   0.000000

     crystal axes: (cart. coord. in units of alat)
               a(1) = (   1.000000   0.000000   0.000000 )  
               a(2) = (  -0.500000   0.866025   0.000000 )  
               a(3) = (   0.000000   0.000000   1.638743 )  

     reciprocal axes: (cart. coord. in units 2 pi/alat)
               b(1) = (  1.000000  0.577350 -0.000000 )  
               b(2) = (  0.000000  1.154701  0.000000 )  
               b(3) = (  0.000000 -0.000000  0.610224 )  


     PseudoPot. # 1 for Zn read from file:
     /home/paolo/project_labqsm/pseudopotentials/Zn_ONCV_PBE-1.2.upf
     MD5 check sum: 732f41c0cd6489a4b50a33b4ec99a2d3
     Pseudo is Norm-conserving, Zval = 20.0
     Generated using ONCVPSP code by D. R. Hamann
     Using radial grid of  602 points,  6 beta functions with: 
                l(1) =   0
                l(2) =   0
                l(3) =   1
                l(4) =   1
                l(5) =   2
                l(6) =   2

     PseudoPot. # 2 for S  read from file:
     /home/paolo/project_labqsm/pseudopotentials/S_ONCV_PBE-1.2.upf
     MD5 check sum: f9d020296ee6110346977bfd66d424f6
     Pseudo is Norm-conserving, Zval =  6.0
     Generated using ONCVPSP code by D. R. Hamann
     Using radial grid of  602 points,  4 beta functions with: 
                l(1) =   0
                l(2) =   0
                l(3) =   1
                l(4) =   1

     atomic species   valence    mass     pseudopotential
        Zn            20.00    65.38000     Zn( 1.00)
        S              6.00    32.06000     S ( 1.00)

      6 Sym. Ops. (no inversion) found



   Cartesian axes

     site n.     atom                  positions (alat units)
         1           Zn  tau(   1) = (   0.0000000   0.0000000   0.0000000  )
         2           S   tau(   2) = (   0.0000000   0.0000000   0.3723729  )
         3           Zn  tau(   3) = (   0.0000000   0.5773503   0.5000000  )
         4           S   tau(   4) = (   0.0000000   0.5773503   0.8723729  )

     number of k points=    65
                       cart. coord. in units 2pi/alat
        k(    1) = (   0.0000000   0.0000000   0.0000000), wk =   0.0039062
        k(    2) = (   0.0000000   0.0000000   0.0762780), wk =   0.0078125
        k(    3) = (   0.0000000   0.0000000   0.1525559), wk =   0.0078125
        k(    4) = (   0.0000000   0.0000000   0.2288339), wk =   0.0078125
        k(    5) = (   0.0000000   0.0000000  -0.3051118), wk =   0.0039062
        k(    6) = (   0.0000000   0.1443376   0.0000000), wk =   0.0234375
        k(    7) = (   0.0000000   0.1443376   0.0762780), wk =   0.0234375
        k(    8) = (   0.0000000   0.1443376   0.1525559), wk =   0.0234375
        k(    9) = (   0.0000000   0.1443376   0.2288339), wk =   0.0234375
        k(   10) = (   0.0000000   0.1443376  -0.3051118), wk =   0.0234375
        k(   11) = (   0.0000000   0.2886751   0.0000000), wk =   0.0234375
        k(   12) = (   0.0000000   0.2886751   0.0762780), wk =   0.0234375
        k(   13) = (   0.0000000   0.2886751   0.1525559), wk =   0.0234375
        k(   14) = (   0.0000000   0.2886751   0.2288339), wk =   0.0234375
        k(   15) = (   0.0000000   0.2886751  -0.3051118), wk =   0.0234375
        k(   16) = (   0.0000000   0.4330127   0.0000000), wk =   0.0234375
        k(   17) = (   0.0000000   0.4330127   0.0762780), wk =   0.0234375
        k(   18) = (   0.0000000   0.4330127   0.1525559), wk =   0.0234375
        k(   19) = (   0.0000000   0.4330127   0.2288339), wk =   0.0234375
        k(   20) = (   0.0000000   0.4330127  -0.3051118), wk =   0.0234375
        k(   21) = (   0.0000000  -0.5773503   0.0000000), wk =   0.0117188
        k(   22) = (   0.0000000  -0.5773503   0.0762780), wk =   0.0234375
        k(   23) = (   0.0000000  -0.5773503   0.1525559), wk =   0.0234375
        k(   24) = (   0.0000000  -0.5773503   0.2288339), wk =   0.0234375
        k(   25) = (   0.0000000  -0.5773503  -0.3051118), wk =   0.0117188
        k(   26) = (   0.1250000   0.2165064   0.0000000), wk =   0.0234375
        k(   27) = (   0.1250000   0.2165064   0.0762780), wk =   0.0468750
        k(   28) = (   0.1250000   0.2165064   0.1525559), wk =   0.0468750
        k(   29) = (   0.1250000   0.2165064   0.2288339), wk =   0.0468750
        k(   30) = (   0.1250000   0.2165064  -0.3051118), wk =   0.0234375
        k(   31) = (   0.1250000   0.3608439   0.0000000), wk =   0.0468750
        k(   32) = (   0.1250000   0.3608439   0.0762780), wk =   0.0468750
        k(   33) = (   0.1250000   0.3608439   0.1525559), wk =   0.0468750
        k(   34) = (   0.1250000   0.3608439   0.2288339), wk =   0.0468750
        k(   35) = (   0.1250000   0.3608439  -0.3051118), wk =   0.0468750
        k(   36) = (   0.1250000   0.5051815   0.0000000), wk =   0.0468750
        k(   37) = (   0.1250000   0.5051815   0.0762780), wk =   0.0468750
        k(   38) = (   0.1250000   0.5051815   0.1525559), wk =   0.0468750
        k(   39) = (   0.1250000   0.5051815   0.2288339), wk =   0.0468750
        k(   40) = (   0.1250000   0.5051815  -0.3051118), wk =   0.0468750
        k(   41) = (   0.2500000   0.4330127   0.0000000), wk =   0.0234375
        k(   42) = (   0.2500000   0.4330127   0.0762780), wk =   0.0468750
        k(   43) = (   0.2500000   0.4330127   0.1525559), wk =   0.0468750
        k(   44) = (   0.2500000   0.4330127   0.2288339), wk =   0.0468750
        k(   45) = (   0.2500000   0.4330127  -0.3051118), wk =   0.0234375
        k(   46) = (   0.2500000   0.5773503   0.0000000), wk =   0.0234375
        k(   47) = (   0.2500000   0.5773503   0.0762780), wk =   0.0468750
        k(   48) = (   0.2500000   0.5773503   0.1525559), wk =   0.0468750
        k(   49) = (   0.2500000   0.5773503   0.2288339), wk =   0.0468750
        k(   50) = (   0.2500000   0.5773503  -0.3051118), wk =   0.0234375
        k(   51) = (   0.0000000  -0.1443376   0.0762780), wk =   0.0234375
        k(   52) = (   0.0000000  -0.1443376   0.1525559), wk =   0.0234375
        k(   53) = (   0.0000000  -0.1443376   0.2288339), wk =   0.0234375
        k(   54) = (   0.0000000  -0.2886751   0.0762780), wk =   0.0234375
        k(   55) = (   0.0000000  -0.2886751   0.1525559), wk =   0.0234375
        k(   56) = (   0.0000000  -0.2886751   0.2288339), wk =   0.0234375
        k(   57) = (   0.0000000  -0.4330127   0.0762780), wk =   0.0234375
        k(   58) = (   0.0000000  -0.4330127   0.1525559), wk =   0.0234375
        k(   59) = (   0.0000000  -0.4330127   0.2288339), wk =   0.0234375
        k(   60) = (  -0.1250000  -0.3608439   0.0762780), wk =   0.0468750
        k(   61) = (  -0.1250000  -0.3608439   0.1525559), wk =   0.0468750
        k(   62) = (  -0.1250000  -0.3608439   0.2288339), wk =   0.0468750
        k(   63) = (  -0.1250000  -0.5051815   0.0762780), wk =   0.0468750
        k(   64) = (  -0.1250000  -0.5051815   0.1525559), wk =   0.0468750
        k(   65) = (  -0.1250000  -0.5051815   0.2288339), wk =   0.0468750

     Dense  grid:    33449 G-vectors     FFT dimensions: (  36,  36,  60)

     Estimated max dynamical RAM per process >     142.59 MB

     Initial potential from superposition of free atoms

     starting charge      51.9339, renormalised to      52.0000
     Starting wfcs are random

     total cpu time spent up to now is        3.7 secs

     Self-consistent Calculation

     iteration #  1     ecut=    60.00 Ry     beta= 0.70
     Davidson diagonalization with overlap
     ethr =  1.00E-02,  avg # of iterations = 14.8

     total cpu time spent up to now is       51.2 secs

     total energy              =    -838.96014929 Ry
     estimated scf accuracy    <       1.27354096 Ry

     iteration #  2     ecut=    60.00 Ry     beta= 0.70
     Davidson diagonalization with overlap
     ethr =  2.45E-03,  avg # of iterations =  8.3

     total cpu time spent up to now is       65.5 secs

     total energy              =    -838.39775007 Ry
     estimated scf accuracy    <       6.98469348 Ry

     iteration #  3     ecut=    60.00 Ry     beta= 0.70
     Davidson diagonalization with overlap
     ethr =  2.45E-03,  avg # of iterations =  6.4

     total cpu time spent up to now is       78.1 secs

     total energy              =    -839.62947575 Ry
     estimated scf accuracy    <       0.35320750 Ry

     iteration #  4     ecut=    60.00 Ry     beta= 0.70
     Davidson diagonalization with overlap
     ethr =  6.79E-04,  avg # of iterations =  2.0

     total cpu time spent up to now is       87.8 secs

     total energy              =    -839.64594627 Ry
     estimated scf accuracy    <       0.07667841 Ry

     iteration #  5     ecut=    60.00 Ry     beta= 0.70
     Davidson diagonalization with overlap
     ethr =  1.47E-04,  avg # of iterations =  4.0

     total cpu time spent up to now is       97.6 secs

     total energy              =    -839.65365574 Ry
     estimated scf accuracy    <       0.00668203 Ry

     iteration #  6     ecut=    60.00 Ry     beta= 0.70
     Davidson diagonalization with overlap
     ethr =  1.29E-05,  avg # of iterations =  4.7

     total cpu time spent up to now is      108.3 secs

     total energy              =    -839.65511472 Ry
     estimated scf accuracy    <       0.00098221 Ry

     iteration #  7     ecut=    60.00 Ry     beta= 0.70
     Davidson diagonalization with overlap
     ethr =  1.89E-06,  avg # of iterations =  3.9

     total cpu time spent up to now is      119.4 secs

     total energy              =    -839.65535835 Ry
     estimated scf accuracy    <       0.00023048 Ry

     iteration #  8     ecut=    60.00 Ry     beta= 0.70
     Davidson diagonalization with overlap
     ethr =  4.43E-07,  avg # of iterations =  3.2

     total cpu time spent up to now is      129.2 secs

     total energy              =    -839.65537880 Ry
     estimated scf accuracy    <       0.00002007 Ry

     iteration #  9     ecut=    60.00 Ry     beta= 0.70
     Davidson diagonalization with overlap
     ethr =  3.86E-08,  avg # of iterations =  5.3

     total cpu time spent up to now is      140.9 secs

     total energy              =    -839.65538585 Ry
     estimated scf accuracy    <       0.00000481 Ry

     iteration # 10     ecut=    60.00 Ry     beta= 0.70
     Davidson diagonalization with overlap
     ethr =  9.25E-09,  avg # of iterations =  4.0

     total cpu time spent up to now is      150.7 secs

     total energy              =    -839.65538636 Ry
     estimated scf accuracy    <       0.00000019 Ry

     iteration # 11     ecut=    60.00 Ry     beta= 0.70
     Davidson diagonalization with overlap
     ethr =  3.59E-10,  avg # of iterations =  5.3

     total cpu time spent up to now is      163.0 secs

     total energy              =    -839.65538643 Ry
     estimated scf accuracy    <       0.00000006 Ry

     iteration # 12     ecut=    60.00 Ry     beta= 0.70
     Davidson diagonalization with overlap
     ethr =  1.23E-10,  avg # of iterations =  2.9

     total cpu time spent up to now is      172.7 secs

     End of self-consistent calculation

          k = 0.0000 0.0000 0.0000 (  4199 PWs)   bands (ev):

  -121.3661-120.5374 -76.7690 -75.8769 -75.1711 -75.1711 -74.4492 -74.4492
    -9.3721  -6.7557  -4.0484  -3.9620  -3.9620  -2.8446  -2.8446  -1.5587
    -1.5587  -1.3323  -1.3323  -1.2706   2.4649   4.7432   4.7432   7.2974
     8.2166   8.2166

          k = 0.0000 0.0000 0.0763 (  4175 PWs)   bands (ev):

  -121.3661-120.5374 -76.7690 -75.8769 -75.1711 -75.1711 -74.4492 -74.4492
    -9.3703  -6.7578  -4.0496  -3.9613  -3.9613  -2.8442  -2.8442  -1.5585
    -1.5585  -1.3320  -1.3320  -1.2957   2.5734   4.7473   4.7473   7.0105
     8.2080   8.2080

          k = 0.0000 0.0000 0.1526 (  4157 PWs)   bands (ev):

  -121.3661-120.5374 -76.7690 -75.8769 -75.1711 -75.1711 -74.4492 -74.4492
    -9.3660  -6.7629  -4.0533  -3.9613  -3.9613  -2.8451  -2.8451  -1.5578
    -1.5578  -1.3526  -1.3313  -1.3313   2.8590   4.7567   4.7567   6.4583
     8.1865   8.1865

          k = 0.0000 0.0000 0.2288 (  4193 PWs)   bands (ev):

  -121.3661-120.5374 -76.7690 -75.8769 -75.1711 -75.1711 -74.4492 -74.4492
    -9.3618  -6.7683  -4.0577  -3.9616  -3.9616  -2.8466  -2.8466  -1.5577
    -1.5577  -1.4071  -1.3313  -1.3313   3.2004   4.7655   4.7655   5.9383
     8.1643   8.1643

          k = 0.0000 0.0000-0.3051 (  4194 PWs)   bands (ev):

  -121.3661-120.5374 -76.7690 -75.8769 -75.1711 -75.1711 -74.4492 -74.4492
    -9.3600  -6.7704  -4.0585  -3.9617  -3.9617  -2.8473  -2.8473  -1.5577
    -1.5577  -1.4280  -1.3313  -1.3313   3.3721   4.7692   4.7692   5.7070
     8.1553   8.1553

          k = 0.0000 0.1443 0.0000 (  4165 PWs)   bands (ev):

  -121.3661-120.5374 -76.7690 -75.8769 -75.1711 -75.1711 -74.4493 -74.4492
    -9.3171  -6.7467  -4.0756  -3.9646  -3.8981  -2.8689  -2.8423  -1.5673
    -1.5509  -1.4210  -1.3032  -1.1097   2.5835   4.0308   4.5021   7.3645
     7.8262   8.3230

          k = 0.0000 0.1443 0.0763 (  4177 PWs)   bands (ev):

  -121.3661-120.5374 -76.7690 -75.8769 -75.1711 -75.1711 -74.4493 -74.4492
    -9.3155  -6.7485  -4.0768  -3.9647  -3.8987  -2.8696  -2.8430  -1.5675
    -1.5509  -1.4252  -1.3032  -1.1277   2.6753   4.0262   4.5072   7.2693
     7.7325   8.3042

          k = 0.0000 0.1443 0.1526 (  4183 PWs)   bands (ev):

  -121.3661-120.5374 -76.7690 -75.8769 -75.1711 -75.1711 -74.4493 -74.4492
    -9.3116  -6.7530  -4.0796  -3.9647  -3.8998  -2.8706  -2.8442  -1.5685
    -1.5505  -1.4356  -1.3028  -1.1671   2.9141   4.0217   4.5183   6.8230
     7.7995   8.2694

          k = 0.0000 0.1443 0.2288 (  4184 PWs)   bands (ev):

  -121.3661-120.5374 -76.7690 -75.8769 -75.1711 -75.1711 -74.4493 -74.4492
    -9.3076  -6.7575  -4.0824  -3.9647  -3.9007  -2.8712  -2.8452  -1.5702
    -1.5503  -1.4479  -1.3025  -1.2005   3.1903   4.0108   4.5288   6.4124
     7.8301   8.2388

          k = 0.0000 0.1443-0.3051 (  4184 PWs)   bands (ev):

  -121.3661-120.5374 -76.7690 -75.8769 -75.1711 -75.1711 -74.4493 -74.4492
    -9.3060  -6.7594  -4.0832  -3.9647  -3.9010  -2.8720  -2.8456  -1.5718
    -1.5502  -1.4531  -1.3024  -1.2130   3.3220   4.0090   4.5322   6.2139
     7.8629   8.2302

          k = 0.0000 0.2887 0.0000 (  4179 PWs)   bands (ev):

  -121.3661-120.5374 -76.7690 -75.8769 -75.1711 -75.1711 -74.4493 -74.4493
    -9.1804  -6.7250  -4.1074  -3.9725  -3.7632  -2.9217  -2.8383  -1.5880
    -1.5332  -1.4884  -1.2302  -0.8908   2.6522   3.1311   4.0038   6.6126
     7.9015   8.4585

          k = 0.0000 0.2887 0.0763 (  4184 PWs)   bands (ev):

  -121.3661-120.5374 -76.7690 -75.8769 -75.1711 -75.1711 -74.4493 -74.4493
    -9.1791  -6.7260  -4.1081  -3.9726  -3.7636  -2.9218  -2.8394  -1.5866
    -1.5332  -1.4902  -1.2302  -0.9030   2.6212   3.2014   4.0100   6.7742
     7.7099   8.4281

          k = 0.0000 0.2887 0.1526 (  4177 PWs)   bands (ev):

  -121.3661-120.5374 -76.7690 -75.8769 -75.1711 -75.1711 -74.4493 -74.4493
    -9.1762  -6.7286  -4.1097  -3.9723  -3.7652  -2.9222  -2.8407  -1.5880
    -1.5328  -1.4886  -1.2297  -0.9339   2.5768   3.3753   4.0235   6.8903
     7.5030   8.3688

          k = 0.0000 0.2887 0.2288 (  4178 PWs)   bands (ev):

  -121.3661-120.5374 -76.7690 -75.8769 -75.1711 -75.1711 -74.4493 -74.4493
    -9.1732  -6.7313  -4.1113  -3.9721  -3.7670  -2.9228  -2.8417  -1.5921
    -1.5326  -1.4847  -1.2294  -0.9650   2.5539   3.5436   4.0365   6.9253
     7.3229   8.3160

          k = 0.0000 0.2887-0.3051 (  4182 PWs)   bands (ev):

  -121.3661-120.5374 -76.7690 -75.8769 -75.1711 -75.1711 -74.4493 -74.4493
    -9.1720  -6.7325  -4.1118  -3.9721  -3.7680  -2.9232  -2.8422  -1.5960
    -1.5324  -1.4807  -1.2293  -0.9787   2.5495   3.6288   4.0409   6.6749
     7.4941   8.2992

          k = 0.0000 0.4330 0.0000 (  4204 PWs)   bands (ev):

  -121.3661-120.5374 -76.7690 -75.8769 -75.1711 -75.1711 -74.4494 -74.4493
    -9.0376  -6.7032  -4.1276  -3.9808  -3.6040  -2.9638  -2.8349  -1.6084
    -1.5154  -1.5140  -1.1510  -0.7886   1.9590   3.3842   3.5774   6.1889
     7.3057   8.4931

          k = 0.0000 0.4330 0.0763 (  4198 PWs)   bands (ev):

  -121.3661-120.5374 -76.7690 -75.8769 -75.1711 -75.1711 -74.4494 -74.4493
    -9.0369  -6.7035  -4.1280  -3.9805  -3.6050  -2.9638  -2.8354  -1.6051
    -1.5153  -1.5143  -1.1509  -0.7897   1.9125   3.4015   3.5841   6.4157
     7.2293   8.4566

          k = 0.0000 0.4330 0.1526 (  4188 PWs)   bands (ev):

  -121.3661-120.5374 -76.7690 -75.8769 -75.1711 -75.1711 -74.4494 -74.4493
    -9.0350  -6.7041  -4.1286  -3.9802  -3.6073  -2.9641  -2.8371  -1.6056
    -1.5148  -1.5049  -1.1505  -0.7984   1.8250   3.4603   3.5989   6.6755
     7.2970   8.3783

          k = 0.0000 0.4330 0.2288 (  4184 PWs)   bands (ev):

  -121.3661-120.5374 -76.7690 -75.8769 -75.1711 -75.1711 -74.4494 -74.4493
    -9.0332  -6.7048  -4.1292  -3.9797  -3.6098  -2.9649  -2.8382  -1.6087
    -1.5148  -1.4920  -1.1501  -0.8101   1.7544   3.5102   3.6137   6.9493
     7.2918   8.3059

          k = 0.0000 0.4330-0.3051 (  4190 PWs)   bands (ev):

  -121.3661-120.5374 -76.7690 -75.8769 -75.1711 -75.1711 -74.4494 -74.4493
    -9.0324  -6.7051  -4.1293  -3.9798  -3.6109  -2.9653  -2.8389  -1.6126
    -1.5150  -1.4832  -1.1503  -0.8176   1.7331   3.5388   3.6192   6.8090
     7.4742   8.2791

          k = 0.0000-0.5774 0.0000 (  4168 PWs)   bands (ev):

  -121.3661-120.5374 -76.7690 -75.8769 -75.1711 -75.1711 -74.4494 -74.4493
    -8.9766  -6.6940  -4.1340  -3.9839  -3.5234  -2.9772  -2.8328  -1.6141
    -1.5105  -1.5074  -1.1155  -0.8099   1.7210   3.4147   3.5235   6.3536
     6.6585   8.4911

          k = 0.0000-0.5774 0.0763 (  4190 PWs)   bands (ev):

  -121.3661-120.5374 -76.7690 -75.8769 -75.1711 -75.1711 -74.4494 -74.4493
    -8.9761  -6.6941  -4.1345  -3.9839  -3.5255  -2.9780  -2.8338  -1.6148
    -1.5074  -1.5048  -1.1156  -0.8099   1.6814   3.4206   3.5189   6.3397
     6.8547   8.4545

          k = 0.0000-0.5774 0.1526 (  4190 PWs)   bands (ev):

  -121.3661-120.5374 -76.7690 -75.8769 -75.1711 -75.1711 -74.4494 -74.4493
    -8.9748  -6.6939  -4.1350  -3.9833  -3.5284  -2.9790  -2.8351  -1.6161
    -1.5076  -1.4898  -1.1157  -0.8095   1.5920   3.4359   3.4993   6.4722
     7.1797   8.3703

          k = 0.0000-0.5774 0.2288 (  4196 PWs)   bands (ev):

  -121.3661-120.5374 -76.7690 -75.8769 -75.1711 -75.1711 -74.4494 -74.4493
    -8.9734  -6.6937  -4.1354  -3.9833  -3.5312  -2.9800  -2.8371  -1.6170
    -1.5075  -1.4747  -1.1155  -0.8091   1.5088   3.4510   3.4706   6.7749
     7.3248   8.2890

          k = 0.0000-0.5774-0.3051 (  4184 PWs)   bands (ev):

  -121.3661-120.5374 -76.7690 -75.8769 -75.1711 -75.1711 -74.4494 -74.4493
    -8.9729  -6.6937  -4.1353  -3.9828  -3.5326  -2.9801  -2.8372  -1.6174
    -1.5072  -1.4687  -1.1153  -0.8091   1.4761   3.4568   3.4578   7.0875
     7.1743   8.2569

          k = 0.1250 0.2165 0.0000 (  4175 PWs)   bands (ev):

  -121.3661-120.5374 -76.7690 -75.8769 -75.1711 -75.1711 -74.4493 -74.4493
    -9.2211  -6.7313  -4.0973  -3.9742  -3.8020  -2.9057  -2.8416  -1.5773
    -1.5449  -1.4735  -1.2505  -0.9445   2.7469   3.3126   3.9908   6.9400
     7.9024   8.3668

          k = 0.1250 0.2165 0.0763 (  4174 PWs)   bands (ev):

  -121.3661-120.5374 -76.7690 -75.8769 -75.1711 -75.1711 -74.4493 -74.4493
    -9.2197  -6.7326  -4.0981  -3.9740  -3.8027  -2.9061  -2.8420  -1.5785
    -1.5444  -1.4736  -1.2502  -0.9598   2.7715   3.3558   3.9983   6.8794
     7.9030   8.3417

          k = 0.1250 0.2165 0.1526 (  4164 PWs)   bands (ev):

  -121.3661-120.5374 -76.7690 -75.8769 -75.1711 -75.1711 -74.4493 -74.4493
    -9.2165  -6.7357  -4.1000  -3.9739  -3.8041  -2.9066  -2.8432  -1.5811
    -1.5433  -1.4742  -1.2499  -0.9952   2.8236   3.4702   4.0181   6.7669
     7.8366   8.2767

          k = 0.1250 0.2165 0.2288 (  4185 PWs)   bands (ev):

  -121.3661-120.5374 -76.7690 -75.8769 -75.1711 -75.1711 -74.4493 -74.4493
    -9.2132  -6.7390  -4.1021  -3.9741  -3.8058  -2.9075  -2.8449  -1.5841
    -1.5427  -1.4749  -1.2500  -1.0289   2.8672   3.5951   4.0416   6.6963
     7.6827   8.2102

          k = 0.1250 0.2165-0.3051 (  4168 PWs)   bands (ev):

  -121.3661-120.5374 -76.7690 -75.8769 -75.1711 -75.1711 -74.4493 -74.4493
    -9.2119  -6.7403  -4.1026  -3.9739  -3.8062  -2.9073  -2.8450  -1.5854
    -1.5418  -1.4753  -1.2495  -1.0422   2.8837   3.6490   4.0539   6.6815
     7.5936   8.1841

          k = 0.1250 0.3608 0.0000 (  4202 PWs)   bands (ev):

  -121.3661-120.5374 -76.7690 -75.8769 -75.1711 -75.1711 -74.4493 -74.4493
    -9.0807  -6.7094  -4.1132  -3.9891  -3.6528  -2.9480  -2.8415  -1.5926
    -1.5502  -1.4980  -1.1695  -0.7897   2.3068   3.2369   3.4209   6.4344
     7.7130   8.2232

          k = 0.1250 0.3608 0.0763 (  4195 PWs)   bands (ev):

  -121.3661-120.5374 -76.7690 -75.8769 -75.1711 -75.1711 -74.4493 -74.4493
    -9.0798  -6.7099  -4.1135  -3.9891  -3.6535  -2.9478  -2.8422  -1.5902
    -1.5500  -1.4981  -1.1694  -0.7959   2.2601   3.2544   3.4655   6.5583
     7.6827   8.1677

          k = 0.1250 0.3608 0.1526 (  4188 PWs)   bands (ev):

  -121.3661-120.5374 -76.7690 -75.8769 -75.1711 -75.1711 -74.4493 -74.4493
    -9.0776  -6.7111  -4.1144  -3.9889  -3.6555  -2.9480  -2.8438  -1.5919
    -1.5440  -1.4963  -1.1695  -0.8138   2.1754   3.2994   3.5563   6.7351
     7.6930   8.0775

          k = 0.1250 0.3608 0.2288 (  4183 PWs)   bands (ev):

  -121.3661-120.5374 -76.7690 -75.8769 -75.1711 -75.1711 -74.4493 -74.4493
    -9.0754  -6.7124  -4.1153  -3.9886  -3.6577  -2.9485  -2.8452  -1.5954
    -1.5370  -1.4929  -1.1694  -0.8331   2.1120   3.3328   3.6367   6.9935
     7.5495   8.0192

          k = 0.1250 0.3608-0.3051 (  4188 PWs)   bands (ev):

  -121.3661-120.5374 -76.7690 -75.8769 -75.1711 -75.1711 -74.4493 -74.4493
    -9.0745  -6.7129  -4.1157  -3.9885  -3.6588  -2.9491  -2.8457  -1.5987
    -1.5337  -1.4900  -1.1695  -0.8424   2.0924   3.3490   3.6674   6.9916
     7.5756   7.9964

          k = 0.1250 0.5052 0.0000 (  4197 PWs)   bands (ev):

  -121.3661-120.5374 -76.7690 -75.8769 -75.1711 -75.1711 -74.4494 -74.4493
    -8.9780  -6.6935  -4.1202  -3.9991  -3.5227  -2.9716  -2.8415  -1.6060
    -1.5510  -1.4916  -1.1133  -0.7613   1.8430   3.0551   3.5258   6.3428
     7.0454   8.1775

          k = 0.1250 0.5052 0.0763 (  4194 PWs)   bands (ev):

  -121.3661-120.5374 -76.7690 -75.8769 -75.1711 -75.1711 -74.4494 -74.4493
    -8.9774  -6.6935  -4.1204  -3.9989  -3.5240  -2.9716  -2.8422  -1.6032
    -1.5493  -1.4913  -1.1132  -0.7603   1.8027   3.0552   3.5236   6.5087
     7.0737   8.1129

          k = 0.1250 0.5052 0.1526 (  4202 PWs)   bands (ev):

  -121.3661-120.5374 -76.7690 -75.8769 -75.1711 -75.1711 -74.4494 -74.4493
    -8.9761  -6.6934  -4.1209  -3.9986  -3.5272  -2.9724  -2.8439  -1.6027
    -1.5401  -1.4892  -1.1134  -0.7615   1.7172   3.0597   3.5192   6.7469
     7.3032   7.9952

          k = 0.1250 0.5052 0.2288 (  4194 PWs)   bands (ev):

  -121.3661-120.5374 -76.7690 -75.8769 -75.1711 -75.1711 -74.4494 -74.4493
    -8.9747  -6.6932  -4.1212  -3.9984  -3.5299  -2.9730  -2.8456  -1.6037
    -1.5297  -1.4852  -1.1136  -0.7639   1.6408   3.0679   3.5074   7.0358
     7.4565   7.9467

          k = 0.1250 0.5052-0.3051 (  4194 PWs)   bands (ev):

  -121.3661-120.5374 -76.7690 -75.8769 -75.1711 -75.1711 -74.4494 -74.4493
    -8.9742  -6.6932  -4.1211  -3.9984  -3.5311  -2.9732  -2.8464  -1.6056
    -1.5248  -1.4821  -1.1137  -0.7664   1.6136   3.0721   3.5030   7.0853
     7.5103   8.0013

          k = 0.2500 0.4330 0.0000 (  4221 PWs)   bands (ev):

  -121.3661-120.5374 -76.7690 -75.8769 -75.1711 -75.1711 -74.4494 -74.4493
    -8.9793  -6.6930  -4.1011  -4.0194  -3.5217  -2.9645  -2.8510  -1.5948
    -1.5768  -1.4925  -1.1121  -0.7134   2.0883   2.5984   3.5269   6.4333
     7.3673   7.8540

          k = 0.2500 0.4330 0.0763 (  4209 PWs)   bands (ev):

  -121.3661-120.5374 -76.7690 -75.8769 -75.1711 -75.1711 -74.4494 -74.4493
    -8.9787  -6.6929  -4.1012  -4.0189  -3.5228  -2.9646  -2.8514  -1.5927
    -1.5735  -1.4925  -1.1121  -0.7149   2.0519   2.5968   3.5382   6.5114
     7.4521   7.8053

          k = 0.2500 0.4330 0.1526 (  4216 PWs)   bands (ev):

  -121.3661-120.5374 -76.7690 -75.8769 -75.1711 -75.1711 -74.4494 -74.4493
    -8.9774  -6.6929  -4.1018  -4.0188  -3.5260  -2.9650  -2.8534  -1.5898
    -1.5641  -1.4933  -1.1126  -0.7193   1.9669   2.6002   3.5515   6.7515
     7.5261   7.8138

          k = 0.2500 0.4330 0.2288 (  4191 PWs)   bands (ev):

  -121.3661-120.5374 -76.7690 -75.8769 -75.1711 -75.1711 -74.4494 -74.4493
    -8.9760  -6.6927  -4.1020  -4.0184  -3.5286  -2.9651  -2.8552  -1.5882
    -1.5523  -1.4938  -1.1126  -0.7237   1.8871   2.6103   3.5511   7.0976
     7.4492   7.9326

          k = 0.2500 0.4330-0.3051 (  4184 PWs)   bands (ev):

  -121.3661-120.5374 -76.7690 -75.8769 -75.1711 -75.1711 -74.4494 -74.4493
    -8.9754  -6.6926  -4.1019  -4.0182  -3.5296  -2.9650  -2.8560  -1.5877
    -1.5472  -1.4943  -1.1128  -0.7256   1.8556   2.6157   3.5479   7.2718
     7.4657   7.9128

          k = 0.2500 0.5774 0.0000 (  4191 PWs)   bands (ev):

  -121.3661-120.5374 -76.7690 -75.8769 -75.1711 -75.1711 -74.4494 -74.4493
    -8.9368  -6.6860  -4.0884  -4.0375  -3.4594  -2.9689  -2.8551  -1.6089
    -1.5684  -1.4893  -1.1006  -0.6752   1.9459   2.3823   3.6038   6.5781
     7.0578   7.6972

          k = 0.2500 0.5774 0.0763 (  4201 PWs)   bands (ev):

  -121.3661-120.5374 -76.7690 -75.8769 -75.1711 -75.1711 -74.4494 -74.4493
    -8.9364  -6.6857  -4.0887  -4.0375  -3.4607  -2.9694  -2.8563  -1.6036
    -1.5677  -1.4901  -1.1010  -0.6753   1.9244   2.3685   3.5848   6.6818
     7.1656   7.6261

          k = 0.2500 0.5774 0.1526 (  4207 PWs)   bands (ev):

  -121.3661-120.5374 -76.7690 -75.8769 -75.1711 -75.1711 -74.4494 -74.4493
    -8.9354  -6.6851  -4.0888  -4.0373  -3.4643  -2.9697  -2.8584  -1.5917
    -1.5643  -1.4921  -1.1013  -0.6753   1.8648   2.3493   3.5392   6.9488
     7.3557   7.5715

          k = 0.2500 0.5774 0.2288 (  4199 PWs)   bands (ev):

  -121.3661-120.5374 -76.7690 -75.8769 -75.1711 -75.1711 -74.4494 -74.4493
    -8.9344  -6.6843  -4.0887  -4.0370  -3.4673  -2.9699  -2.8604  -1.5833
    -1.5561  -1.4945  -1.1017  -0.6753   1.7980   2.3441   3.4948   7.1372
     7.4293   7.8252

          k = 0.2500 0.5774-0.3051 (  4192 PWs)   bands (ev):

  -121.3661-120.5374 -76.7690 -75.8769 -75.1711 -75.1711 -74.4494 -74.4493
    -8.9340  -6.6839  -4.0886  -4.0370  -3.4683  -2.9699  -2.8613  -1.5811
    -1.5508  -1.4958  -1.1019  -0.6753   1.7693   2.3448   3.4768   7.1220
     7.5742   7.9565

          k = 0.0000-0.1443 0.0763 (  4177 PWs)   bands (ev):

  -121.3661-120.5374 -76.7690 -75.8769 -75.1711 -75.1711 -74.4493 -74.4492
    -9.3155  -6.7485  -4.0767  -3.9648  -3.8987  -2.8698  -2.8429  -1.5684
    -1.5508  -1.4243  -1.3032  -1.1279   2.6756   4.0389   4.5054   7.0535
     8.0052   8.3142

          k = 0.0000-0.1443 0.1526 (  4183 PWs)   bands (ev):

  -121.3661-120.5374 -76.7690 -75.8769 -75.1711 -75.1711 -74.4493 -74.4492
    -9.3116  -6.7530  -4.0794  -3.9649  -3.8998  -2.8709  -2.8439  -1.5700
    -1.5504  -1.4342  -1.3028  -1.1674   2.9132   4.0447   4.5156   6.6584
     8.0028   8.2832

          k = 0.0000-0.1443 0.2288 (  4184 PWs)   bands (ev):

  -121.3661-120.5374 -76.7690 -75.8769 -75.1711 -75.1711 -74.4493 -74.4492
    -9.3076  -6.7575  -4.0822  -3.9648  -3.9006  -2.8715  -2.8451  -1.5715
    -1.5502  -1.4466  -1.3025  -1.2010   3.1869   4.0337   4.5267   6.3242
     7.9269   8.2485

          k = 0.0000-0.2887 0.0763 (  4184 PWs)   bands (ev):

  -121.3661-120.5374 -76.7690 -75.8769 -75.1711 -75.1711 -74.4493 -74.4493
    -9.1791  -6.7260  -4.1078  -3.9728  -3.7639  -2.9221  -2.8391  -1.5919
    -1.5331  -1.4845  -1.2302  -0.9053   2.6235   3.2371   4.0080   6.4416
     8.0611   8.4403

          k = 0.0000-0.2887 0.1526 (  4177 PWs)   bands (ev):

  -121.3661-120.5374 -76.7690 -75.8769 -75.1711 -75.1711 -74.4493 -74.4493
    -9.1761  -6.7286  -4.1092  -3.9727  -3.7655  -2.9227  -2.8403  -1.5954
    -1.5326  -1.4805  -1.2298  -0.9374   2.5819   3.4307   4.0207   6.3526
     8.0535   8.3858

          k = 0.0000-0.2887 0.2288 (  4178 PWs)   bands (ev):

  -121.3661-120.5374 -76.7690 -75.8769 -75.1711 -75.1711 -74.4493 -74.4493
    -9.1732  -6.7313  -4.1109  -3.9722  -3.7672  -2.9233  -2.8414  -1.5973
    -1.5324  -1.4789  -1.2294  -0.9674   2.5579   3.5878   4.0344   6.4278
     7.8167   8.3278

          k = 0.0000-0.4330 0.0763 (  4198 PWs)   bands (ev):

  -121.3661-120.5374 -76.7690 -75.8769 -75.1711 -75.1711 -74.4494 -74.4493
    -9.0369  -6.7035  -4.1277  -3.9806  -3.6052  -2.9642  -2.8353  -1.6127
    -1.5152  -1.5050  -1.1509  -0.7954   1.9259   3.4388   3.5829   6.0627
     7.5291   8.4645

          k = 0.0000-0.4330 0.1526 (  4188 PWs)   bands (ev):

  -121.3661-120.5374 -76.7690 -75.8769 -75.1711 -75.1711 -74.4494 -74.4493
    -9.0350  -6.7041  -4.1281  -3.9804  -3.6077  -2.9646  -2.8368  -1.6153
    -1.5147  -1.4927  -1.1503  -0.8067   1.8435   3.5118   3.5973   6.1337
     7.7394   8.3887

          k = 0.0000-0.4330 0.2288 (  4184 PWs)   bands (ev):

  -121.3661-120.5374 -76.7690 -75.8769 -75.1711 -75.1711 -74.4494 -74.4493
    -9.0332  -6.7048  -4.1288  -3.9798  -3.6102  -2.9652  -2.8380  -1.6150
    -1.5147  -1.4838  -1.1502  -0.8160   1.7672   3.5448   3.6126   6.4184
     7.7322   8.3130

          k =-0.1250-0.3608 0.0763 (  4195 PWs)   bands (ev):

  -121.3661-120.5374 -76.7690 -75.8769 -75.1711 -75.1711 -74.4493 -74.4493
    -9.0798  -6.7098  -4.1133  -3.9892  -3.6536  -2.9481  -2.8421  -1.5969
    -1.5448  -1.4958  -1.1694  -0.7986   2.2686   3.2853   3.4486   6.3617
     7.8538   8.2018

          k =-0.1250-0.3608 0.1526 (  4188 PWs)   bands (ev):

  -121.3661-120.5374 -76.7690 -75.8769 -75.1711 -75.1711 -74.4493 -74.4493
    -9.0776  -6.7111  -4.1140  -3.9890  -3.6557  -2.9484  -2.8436  -1.6000
    -1.5386  -1.4925  -1.1694  -0.8177   2.1871   3.3283   3.5492   6.4197
     7.9607   8.1349

          k =-0.1250-0.3608 0.2288 (  4183 PWs)   bands (ev):

  -121.3661-120.5374 -76.7690 -75.8769 -75.1711 -75.1711 -74.4493 -74.4493
    -9.0754  -6.7124  -4.1151  -3.9887  -3.6579  -2.9487  -2.8451  -1.6005
    -1.5342  -1.4898  -1.1694  -0.8358   2.1199   3.3473   3.6383   6.6568
     7.8662   8.0455

          k =-0.1250-0.5052 0.0763 (  4194 PWs)   bands (ev):

  -121.3661-120.5374 -76.7690 -75.8769 -75.1711 -75.1711 -74.4494 -74.4493
    -8.9774  -6.6935  -4.1202  -3.9990  -3.5241  -2.9718  -2.8422  -1.6083
    -1.5444  -1.4901  -1.1133  -0.7634   1.8102   3.0557   3.5350   6.3030
     7.2482   8.1446

          k =-0.1250-0.5052 0.1526 (  4202 PWs)   bands (ev):

  -121.3661-120.5374 -76.7690 -75.8769 -75.1711 -75.1711 -74.4494 -74.4493
    -8.9761  -6.6934  -4.1206  -3.9987  -3.5273  -2.9726  -2.8438  -1.6088
    -1.5346  -1.4872  -1.1136  -0.7659   1.7277   3.0604   3.5329   6.4599
     7.5155   8.0696

          k =-0.1250-0.5052 0.2288 (  4194 PWs)   bands (ev):

  -121.3661-120.5374 -76.7690 -75.8769 -75.1711 -75.1711 -74.4494 -74.4493
    -8.9747  -6.6932  -4.1210  -3.9984  -3.5300  -2.9731  -2.8456  -1.6075
    -1.5269  -1.4832  -1.1137  -0.7671   1.6481   3.0684   3.5154   6.7752
     7.6086   8.0480

     highest occupied level (ev):     8.4931

!    total energy              =    -839.65538644 Ry
     estimated scf accuracy    <          4.1E-09 Ry

     The total energy is the sum of the following terms:
     one-electron contribution =    -832.69426890 Ry
     hartree contribution      =     418.77484947 Ry
     xc contribution           =     -82.82736565 Ry
     ewald contribution        =    -342.90860136 Ry

     convergence has been achieved in  12 iterations

     Writing all to output data dir ./SCRATCH/zns_w.save/

     init_run     :      3.47s CPU      3.66s WALL (       1 calls)
     electrons    :    168.20s CPU    169.01s WALL (       1 calls)

     Called by init_run:
     wfcinit      :      3.36s CPU      3.52s WALL (       1 calls)
     potinit      :      0.05s CPU      0.06s WALL (       1 calls)
     hinit0       :      0.03s CPU      0.04s WALL (       1 calls)

     Called by electrons:
     c_bands      :    156.23s CPU    156.91s WALL (      12 calls)
     sum_band     :     11.67s CPU     11.77s WALL (      12 calls)
     v_of_rho     :      0.27s CPU      0.31s WALL (      13 calls)
     mix_rho      :      0.05s CPU      0.04s WALL (      12 calls)

     Called by c_bands:
     init_us_2    :      1.48s CPU      1.60s WALL (    1625 calls)
     init_us_2:cp :      1.48s CPU      1.59s WALL (    1625 calls)
     cegterg      :    152.48s CPU    153.00s WALL (     780 calls)

     Called by *egterg:
     cdiaghg      :      2.73s CPU      2.90s WALL (    4995 calls)
     h_psi        :    103.09s CPU    103.54s WALL (    5060 calls)
     g_psi        :      0.72s CPU      0.55s WALL (    4215 calls)

     Called by h_psi:
     h_psi:calbec :     16.23s CPU     16.06s WALL (    5060 calls)
     vloc_psi     :     74.59s CPU     75.59s WALL (    5060 calls)
     add_vuspsi   :     11.92s CPU     11.41s WALL (    5060 calls)

     General routines
     calbec       :     16.23s CPU     16.04s WALL (    5060 calls)
     fft          :      0.03s CPU      0.10s WALL (     129 calls)
     ffts         :      0.02s CPU      0.01s WALL (      12 calls)
     fftw         :     76.16s CPU     76.99s WALL (  159884 calls)


     PWSCF        :   2m51.72s CPU   2m52.78s WALL


   This run was terminated on:  12:20:36   9Jun2024            

=------------------------------------------------------------------------------=
   JOB DONE.
=------------------------------------------------------------------------------=
