
     Program PWSCF v.7.2 starts on 11Jun2024 at 13:12:20 

     This program is part of the open-source Quantum ESPRESSO suite
     for quantum simulation of materials; please cite
         "P. Giannozzi et al., J. Phys.:Condens. Matter 21 395502 (2009);
         "P. Giannozzi et al., J. Phys.:Condens. Matter 29 465901 (2017);
         "P. Giannozzi et al., J. Chem. Phys. 152 154105 (2020);
          URL http://www.quantum-espresso.org", 
     in publications or presentations arising from this work. More details at
     http://www.quantum-espresso.org/quote

     Serial version
     8071 MiB available memory on the printing compute node when the environment starts

     Waiting for input...
     Reading input from standard input

     Current dimensions of program PWSCF are:
     Max number of different atomic species (ntypx) = 10
     Max number of k-points (npk) =  40000
     Max angular momentum in pseudopotentials (lmaxx) =  4
     file Ga.pz-dn-rrkjus_psl.0.2.UPF: wavefunction(s)  4S 3D renormalized


     G-vector sticks info
     --------------------
     sticks:   dense  smooth     PW     G-vecs:    dense   smooth      PW
     Sum        1393     685    211                34327    12039    2085

     Using Slab Decomposition



     bravais-lattice index     =            2
     lattice parameter (alat)  =      11.2170  a.u.
     unit-cell volume          =     352.8385 (a.u.)^3
     number of atoms/cell      =            2
     number of atomic types    =            2
     number of electrons       =        18.00
     number of Kohn-Sham states=            9
     kinetic-energy cutoff     =      40.0000  Ry
     charge density cutoff     =     320.0000  Ry
     scf convergence threshold =      1.0E-08
     mixing beta               =       0.7000
     number of iterations used =            8  plain     mixing
     energy convergence thresh.=      1.0E-04
     force convergence thresh. =      1.0E-03
     press convergence thresh. =      5.0E-01
     Exchange-correlation= LDA
                           (   1   1   0   0   0   0   0)
     nstep                     =           50


     celldm(1)=  11.217050  celldm(2)=   0.000000  celldm(3)=   0.000000
     celldm(4)=   0.000000  celldm(5)=   0.000000  celldm(6)=   0.000000

     crystal axes: (cart. coord. in units of alat)
               a(1) = (  -0.500000   0.000000   0.500000 )  
               a(2) = (   0.000000   0.500000   0.500000 )  
               a(3) = (  -0.500000   0.500000   0.000000 )  

     reciprocal axes: (cart. coord. in units 2 pi/alat)
               b(1) = ( -1.000000 -1.000000  1.000000 )  
               b(2) = (  1.000000  1.000000  1.000000 )  
               b(3) = ( -1.000000  1.000000 -1.000000 )  


     PseudoPot. # 1 for Ga read from file:
     /home/paolo/LABQSM/pseudo/Ga.pz-dn-rrkjus_psl.0.2.UPF
     MD5 check sum: 337958ae198bc3768054a43796a587a1
     Pseudo is Ultrasoft + core correction, Zval = 13.0
     Generated using "atomic" code by A. Dal Corso  v.5.0.2 svn rev. 9415
     Using radial grid of 1205 points,  6 beta functions with: 
                l(1) =   0
                l(2) =   0
                l(3) =   1
                l(4) =   1
                l(5) =   2
                l(6) =   2
     Q(r) pseudized with 0 coefficients 


     PseudoPot. # 2 for As read from file:
     /home/paolo/LABQSM/pseudo/As.pz-n-rrkjus_psl.0.2.UPF
     MD5 check sum: f80104272e9b817acfe428865afbdb7e
     Pseudo is Ultrasoft + core correction, Zval =  5.0
     Generated using "atomic" code by A. Dal Corso  v.5.0.2 svn rev. 9415
     Using radial grid of 1209 points,  4 beta functions with: 
                l(1) =   0
                l(2) =   0
                l(3) =   1
                l(4) =   1
     Q(r) pseudized with 0 coefficients 


     atomic species   valence    mass     pseudopotential
        Ga            13.00    69.72300     Ga( 1.00)
        As             5.00    74.92200     As( 1.00)

     24 Sym. Ops. (no inversion) found



   Cartesian axes

     site n.     atom                  positions (alat units)
         1           Ga  tau(   1) = (   0.0000000   0.0000000   0.0000000  )
         2           As  tau(   2) = (   0.2500000   0.2500000   0.2500000  )

     number of k points=    29
                       cart. coord. in units 2pi/alat
        k(    1) = (   0.0000000   0.0000000   0.0000000), wk =   0.0039062
        k(    2) = (  -0.1250000   0.1250000  -0.1250000), wk =   0.0312500
        k(    3) = (  -0.2500000   0.2500000  -0.2500000), wk =   0.0312500
        k(    4) = (  -0.3750000   0.3750000  -0.3750000), wk =   0.0312500
        k(    5) = (   0.5000000  -0.5000000   0.5000000), wk =   0.0156250
        k(    6) = (   0.0000000   0.2500000   0.0000000), wk =   0.0234375
        k(    7) = (  -0.1250000   0.3750000  -0.1250000), wk =   0.0937500
        k(    8) = (  -0.2500000   0.5000000  -0.2500000), wk =   0.0937500
        k(    9) = (   0.6250000  -0.3750000   0.6250000), wk =   0.0937500
        k(   10) = (   0.5000000  -0.2500000   0.5000000), wk =   0.0937500
        k(   11) = (   0.3750000  -0.1250000   0.3750000), wk =   0.0937500
        k(   12) = (   0.2500000   0.0000000   0.2500000), wk =   0.0468750
        k(   13) = (   0.0000000   0.5000000   0.0000000), wk =   0.0234375
        k(   14) = (  -0.1250000   0.6250000  -0.1250000), wk =   0.0937500
        k(   15) = (   0.7500000  -0.2500000   0.7500000), wk =   0.0937500
        k(   16) = (   0.6250000  -0.1250000   0.6250000), wk =   0.0937500
        k(   17) = (   0.5000000   0.0000000   0.5000000), wk =   0.0468750
        k(   18) = (   0.0000000   0.7500000   0.0000000), wk =   0.0234375
        k(   19) = (   0.8750000  -0.1250000   0.8750000), wk =   0.0937500
        k(   20) = (   0.7500000   0.0000000   0.7500000), wk =   0.0468750
        k(   21) = (   0.0000000  -1.0000000   0.0000000), wk =   0.0117188
        k(   22) = (  -0.2500000   0.5000000   0.0000000), wk =   0.0937500
        k(   23) = (   0.6250000  -0.3750000   0.8750000), wk =   0.1875000
        k(   24) = (   0.5000000  -0.2500000   0.7500000), wk =   0.0937500
        k(   25) = (   0.7500000  -0.2500000   1.0000000), wk =   0.0937500
        k(   26) = (   0.6250000  -0.1250000   0.8750000), wk =   0.1875000
        k(   27) = (   0.5000000   0.0000000   0.7500000), wk =   0.0937500
        k(   28) = (  -0.2500000  -1.0000000   0.0000000), wk =   0.0468750
        k(   29) = (  -0.5000000  -1.0000000   0.0000000), wk =   0.0234375

     Dense  grid:    34327 G-vectors     FFT dimensions: (  45,  45,  45)

     Smooth grid:    12039 G-vectors     FFT dimensions: (  32,  32,  32)

     Estimated max dynamical RAM per process >     139.24 MB

     Initial potential from superposition of free atoms

     starting charge      17.9975, renormalised to      18.0000
     Starting wfcs are   13 randomized atomic wfcs

     total cpu time spent up to now is        2.7 secs

     Self-consistent Calculation

     iteration #  1     ecut=    40.00 Ry     beta= 0.70
     Davidson diagonalization with overlap
     ethr =  1.00E-02,  avg # of iterations =  1.2

     Threshold (ethr) on eigenvalues was too large:
     Diagonalizing with lowered threshold

     Davidson diagonalization with overlap
     ethr =  2.94E-04,  avg # of iterations =  2.0

     total cpu time spent up to now is        4.2 secs

     total energy              =    -190.69333297 Ry
     estimated scf accuracy    <       0.04730303 Ry

     iteration #  2     ecut=    40.00 Ry     beta= 0.70
     Davidson diagonalization with overlap
     ethr =  2.63E-04,  avg # of iterations =  2.6

     total cpu time spent up to now is        5.1 secs

     total energy              =    -190.69307513 Ry
     estimated scf accuracy    <       0.05845183 Ry

     iteration #  3     ecut=    40.00 Ry     beta= 0.70
     Davidson diagonalization with overlap
     ethr =  2.63E-04,  avg # of iterations =  2.0

     total cpu time spent up to now is        6.0 secs

     total energy              =    -190.70513716 Ry
     estimated scf accuracy    <       0.01534491 Ry

     iteration #  4     ecut=    40.00 Ry     beta= 0.70
     Davidson diagonalization with overlap
     ethr =  8.52E-05,  avg # of iterations =  2.0

     total cpu time spent up to now is        6.9 secs

     total energy              =    -190.70799841 Ry
     estimated scf accuracy    <       0.00022163 Ry

     iteration #  5     ecut=    40.00 Ry     beta= 0.70
     Davidson diagonalization with overlap
     ethr =  1.23E-06,  avg # of iterations =  4.0

     total cpu time spent up to now is        7.9 secs

     total energy              =    -190.70816508 Ry
     estimated scf accuracy    <       0.00017774 Ry

     iteration #  6     ecut=    40.00 Ry     beta= 0.70
     Davidson diagonalization with overlap
     ethr =  9.87E-07,  avg # of iterations =  1.0

     total cpu time spent up to now is        8.6 secs

     total energy              =    -190.70807029 Ry
     estimated scf accuracy    <       0.00015863 Ry

     iteration #  7     ecut=    40.00 Ry     beta= 0.70
     Davidson diagonalization with overlap
     ethr =  8.81E-07,  avg # of iterations =  2.4

     total cpu time spent up to now is        9.5 secs

     total energy              =    -190.70811366 Ry
     estimated scf accuracy    <       0.00000079 Ry

     iteration #  8     ecut=    40.00 Ry     beta= 0.70
     Davidson diagonalization with overlap
     ethr =  4.40E-09,  avg # of iterations =  5.8

     total cpu time spent up to now is       10.8 secs

     total energy              =    -190.70811039 Ry
     estimated scf accuracy    <       0.00002442 Ry

     iteration #  9     ecut=    40.00 Ry     beta= 0.70
     Davidson diagonalization with overlap
     ethr =  4.40E-09,  avg # of iterations =  3.9

     total cpu time spent up to now is       11.8 secs

     total energy              =    -190.70810972 Ry
     estimated scf accuracy    <       0.00000412 Ry

     iteration # 10     ecut=    40.00 Ry     beta= 0.70
     Davidson diagonalization with overlap
     ethr =  4.40E-09,  avg # of iterations =  3.8

     total cpu time spent up to now is       12.8 secs

     total energy              =    -190.70811077 Ry
     estimated scf accuracy    <       0.00000004 Ry

     iteration # 11     ecut=    40.00 Ry     beta= 0.70
     Davidson diagonalization with overlap
     ethr =  2.01E-10,  avg # of iterations =  2.1

     total cpu time spent up to now is       13.6 secs

     End of self-consistent calculation

          k = 0.0000 0.0000 0.0000 (  1459 PWs)   bands (ev):

    -9.8714  -9.8714  -9.8714  -9.8225  -9.8225  -7.0278   4.0815   4.8156
     4.8156

          k =-0.1250 0.1250-0.1250 (  1480 PWs)   bands (ev):

    -9.8780  -9.8695  -9.8695  -9.8227  -9.8227  -6.8823   2.6010   4.6261
     4.6261

          k =-0.2500 0.2500-0.2500 (  1495 PWs)   bands (ev):

    -9.8932  -9.8651  -9.8651  -9.8224  -9.8224  -6.4798   0.8181   4.2613
     4.2613

          k =-0.3750 0.3750-0.3750 (  1504 PWs)   bands (ev):

    -9.9075  -9.8614  -9.8614  -9.8212  -9.8212  -5.9601  -0.6004   3.9742
     3.9742

          k = 0.5000-0.5000 0.5000 (  1502 PWs)   bands (ev):

    -9.9134  -9.8601  -9.8601  -9.8204  -9.8204  -5.6824  -1.1875   3.8702
     3.8702

          k = 0.0000 0.2500 0.0000 (  1483 PWs)   bands (ev):

    -9.8822  -9.8677  -9.8677  -9.8243  -9.8213  -6.8335   2.4766   4.2900
     4.2900

          k =-0.1250 0.3750-0.1250 (  1499 PWs)   bands (ev):

    -9.8947  -9.8639  -9.8629  -9.8255  -9.8205  -6.5143   1.1614   3.8181
     3.8833

          k =-0.2500 0.5000-0.2500 (  1497 PWs)   bands (ev):

    -9.9078  -9.8606  -9.8588  -9.8249  -9.8195  -6.0192  -0.2407   3.2730
     3.6340

          k = 0.6250-0.3750 0.6250 (  1507 PWs)   bands (ev):

    -9.9152  -9.8590  -9.8575  -9.8228  -9.8198  -5.6209  -1.0919   2.8971
     3.6206

          k = 0.5000-0.2500 0.5000 (  1500 PWs)   bands (ev):

    -9.9129  -9.8591  -9.8587  -9.8218  -9.8211  -5.7183  -0.8978   2.7980
     3.8395

          k = 0.3750-0.1250 0.3750 (  1509 PWs)   bands (ev):

    -9.9022  -9.8626  -9.8612  -9.8238  -9.8211  -6.1961   0.1959   3.0376
     4.2199

          k = 0.2500 0.0000 0.2500 (  1498 PWs)   bands (ev):

    -9.8880  -9.8673  -9.8652  -9.8240  -9.8217  -6.6498   1.5816   3.7055
     4.5825

          k = 0.0000 0.5000 0.0000 (  1491 PWs)   bands (ev):

    -9.9058  -9.8578  -9.8578  -9.8287  -9.8186  -6.2896   0.7006   3.4301
     3.4301

          k =-0.1250 0.6250-0.1250 (  1511 PWs)   bands (ev):

    -9.9168  -9.8541  -9.8532  -9.8301  -9.8175  -5.8688  -0.2454   2.8028
     3.1492

          k = 0.7500-0.2500 0.7500 (  1504 PWs)   bands (ev):

    -9.9220  -9.8540  -9.8511  -9.8284  -9.8181  -5.4498  -1.0113   2.0900
     3.1305

          k = 0.6250-0.1250 0.6250 (  1509 PWs)   bands (ev):

    -9.9201  -9.8558  -9.8527  -9.8251  -9.8207  -5.3896  -1.0997   1.7448
     3.3765

          k = 0.5000 0.0000 0.5000 (  1506 PWs)   bands (ev):

    -9.9126  -9.8580  -9.8572  -9.8234  -9.8221  -5.7528  -0.5173   2.0061
     3.8098

          k = 0.0000 0.7500 0.0000 (  1512 PWs)   bands (ev):

    -9.9271  -9.8476  -9.8476  -9.8338  -9.8159  -5.5549  -0.7784   2.8112
     2.8112

          k = 0.8750-0.1250 0.8750 (  1514 PWs)   bands (ev):

    -9.9312  -9.8468  -9.8455  -9.8338  -9.8157  -5.2347  -1.2600   2.2338
     2.7371

          k = 0.7500 0.0000 0.7500 (  1514 PWs)   bands (ev):

    -9.9276  -9.8508  -9.8473  -9.8302  -9.8181  -5.1600  -1.3143   1.6136
     2.9458

          k = 0.0000-1.0000 0.0000 (  1524 PWs)   bands (ev):

    -9.9354  -9.8434  -9.8434  -9.8362  -9.8147  -5.1268  -1.4566   2.5929
     2.5929

          k =-0.2500 0.5000 0.0000 (  1510 PWs)   bands (ev):

    -9.9067  -9.8598  -9.8582  -9.8269  -9.8193  -6.1416   0.2566   2.8288
     3.7360

          k = 0.6250-0.3750 0.8750 (  1507 PWs)   bands (ev):

    -9.9159  -9.8577  -9.8541  -9.8261  -9.8195  -5.6683  -0.6996   2.2377
     3.3839

          k = 0.5000-0.2500 0.7500 (  1514 PWs)   bands (ev):

    -9.9196  -9.8573  -9.8527  -9.8249  -9.8202  -5.4210  -1.1419   2.0634
     3.2220

          k = 0.7500-0.2500 1.0000 (  1502 PWs)   bands (ev):

    -9.9243  -9.8520  -9.8484  -9.8310  -9.8171  -5.4777  -0.8772   2.2845
     2.7738

          k = 0.6250-0.1250 0.8750 (  1514 PWs)   bands (ev):

    -9.9258  -9.8536  -9.8469  -9.8292  -9.8188  -5.2058  -1.2399   1.7664
     2.6263

          k = 0.5000 0.0000 0.7500 (  1511 PWs)   bands (ev):

    -9.9223  -9.8558  -9.8490  -9.8269  -9.8203  -5.3048  -1.1080   1.6465
     2.9089

          k =-0.2500-1.0000 0.0000 (  1514 PWs)   bands (ev):

    -9.9313  -9.8485  -9.8444  -9.8329  -9.8165  -5.1111  -1.3940   2.2054
     2.2989

          k =-0.5000-1.0000 0.0000 (  1540 PWs)   bands (ev):

    -9.9268  -9.8545  -9.8452  -9.8292  -9.8197  -5.0952  -1.3255   1.8822
     2.0601

     highest occupied level (ev):     4.8156

!    total energy              =    -190.70811077 Ry
     estimated scf accuracy    <          8.1E-09 Ry

     The total energy is the sum of the following terms:
     one-electron contribution =    -119.39003151 Ry
     hartree contribution      =      74.21581752 Ry
     xc contribution           =     -56.94421005 Ry
     ewald contribution        =     -88.58968672 Ry

     convergence has been achieved in  11 iterations

     Forces acting on atoms (cartesian axes, Ry/au):

     atom    1 type  1   force =     0.00000000   -0.00000000    0.00000000
     atom    2 type  2   force =     0.00000000    0.00000000   -0.00000000
     The non-local contrib.  to forces
     atom    1 type  1   force =    -0.00000000    0.00000000   -0.00000000
     atom    2 type  2   force =     0.00000000    0.00000000    0.00000000
     The ionic contribution  to forces
     atom    1 type  1   force =    -0.00000000   -0.00000000   -0.00000000
     atom    2 type  2   force =     0.00000000    0.00000000    0.00000000
     The local contribution  to forces
     atom    1 type  1   force =     0.00000000   -0.00000000   -0.00000000
     atom    2 type  2   force =    -0.00000000    0.00000000   -0.00000000
     The core correction contribution to forces
     atom    1 type  1   force =     0.00000000   -0.00000000   -0.00000000
     atom    2 type  2   force =     0.00000000   -0.00000000   -0.00000000
     The Hubbard contrib.    to forces
     atom    1 type  1   force =     0.00000000    0.00000000    0.00000000
     atom    2 type  2   force =     0.00000000    0.00000000    0.00000000
     The SCF correction term to forces
     atom    1 type  1   force =    -0.00000000    0.00000000    0.00000000
     atom    2 type  2   force =     0.00000000   -0.00000000   -0.00000000

     Total force =     0.000000     Total SCF correction =     0.000000


     Computing stress (Cartesian axis) and pressure

          total   stress  (Ry/bohr**3)                   (kbar)     P=      -88.50
  -0.00060160  -0.00000000  -0.00000000          -88.50       -0.00       -0.00
  -0.00000000  -0.00060160   0.00000000           -0.00      -88.50        0.00
  -0.00000000   0.00000000  -0.00060160           -0.00        0.00      -88.50


     BFGS Geometry Optimization
     Energy error            =      0.0E+00 Ry
     Gradient error          =      3.3E-32 Ry/Bohr
     Cell gradient error     =      8.8E+01 kbar

     number of scf cycles    =   1
     number of bfgs steps    =   0

     enthalpy           new  =    -190.7081107673 Ry

     new trust radius        =       0.0565025339 bohr
     new conv_thr            =       0.0000000100 Ry

     new unit-cell volume =    337.15657 a.u.^3 (    49.96145 Ang^3 )
     density =      4.80748 g/cm^3

CELL_PARAMETERS (alat= 11.21704970)
  -0.492479963   0.000000000   0.492479963
  -0.000000000   0.492479963   0.492479963
  -0.492479963   0.492479963   0.000000000

ATOMIC_POSITIONS (alat)
Ga           -0.0000000000       -0.0000000000        0.0000000000
As            0.2462399816        0.2462399816        0.2462399816



     Writing config-only to output data dir ./SCRATCH/gallium arsenide.save/
     NEW-OLD atomic charge density approx. for the potential
     extrapolated charge   17.16289, renormalised to   18.00000

     total cpu time spent up to now is       21.5 secs

     Self-consistent Calculation

     iteration #  1     ecut=    40.00 Ry     beta= 0.70
     Davidson diagonalization with overlap
     ethr =  1.00E-06,  avg # of iterations =  8.2

     total cpu time spent up to now is       23.2 secs

     total energy              =    -189.37432750 Ry
     estimated scf accuracy    <       1.20763283 Ry

     iteration #  2     ecut=    40.00 Ry     beta= 0.70
     Davidson diagonalization with overlap
     ethr =  6.71E-03,  avg # of iterations =  3.1

     total cpu time spent up to now is       24.3 secs

     total energy              =    -188.96471555 Ry
     estimated scf accuracy    <      19.97339810 Ry

     iteration #  3     ecut=    40.00 Ry     beta= 0.70
     Davidson diagonalization with overlap
     ethr =  6.71E-03,  avg # of iterations =  3.0

     total cpu time spent up to now is       25.3 secs

     total energy              =    -190.74783611 Ry
     estimated scf accuracy    <       0.59574477 Ry

     iteration #  4     ecut=    40.00 Ry     beta= 0.70
     Davidson diagonalization with overlap
     ethr =  3.31E-03,  avg # of iterations =  1.0

     total cpu time spent up to now is       26.0 secs

     total energy              =    -190.73691029 Ry
     estimated scf accuracy    <       0.25942523 Ry

     iteration #  5     ecut=    40.00 Ry     beta= 0.70
     Davidson diagonalization with overlap
     ethr =  1.44E-03,  avg # of iterations =  1.0

     total cpu time spent up to now is       26.7 secs

     total energy              =    -190.72482139 Ry
     estimated scf accuracy    <       0.13699732 Ry

     iteration #  6     ecut=    40.00 Ry     beta= 0.70
     Davidson diagonalization with overlap
     ethr =  7.61E-04,  avg # of iterations =  1.0

     total cpu time spent up to now is       27.5 secs

     total energy              =    -190.72495694 Ry
     estimated scf accuracy    <       0.06193650 Ry

     iteration #  7     ecut=    40.00 Ry     beta= 0.70
     Davidson diagonalization with overlap
     ethr =  3.44E-04,  avg # of iterations =  1.0

     total cpu time spent up to now is       28.2 secs

     total energy              =    -190.72509879 Ry
     estimated scf accuracy    <       0.04731709 Ry

     iteration #  8     ecut=    40.00 Ry     beta= 0.70
     Davidson diagonalization with overlap
     ethr =  2.63E-04,  avg # of iterations =  1.0

     total cpu time spent up to now is       29.0 secs

     total energy              =    -190.72521841 Ry
     estimated scf accuracy    <       0.04775637 Ry

     iteration #  9     ecut=    40.00 Ry     beta= 0.70
     Davidson diagonalization with overlap
     ethr =  2.63E-04,  avg # of iterations =  1.0

     total cpu time spent up to now is       29.7 secs

     total energy              =    -190.71809167 Ry
     estimated scf accuracy    <       0.04637074 Ry

     iteration # 10     ecut=    40.00 Ry     beta= 0.70
     Davidson diagonalization with overlap
     ethr =  2.58E-04,  avg # of iterations =  1.0

     total cpu time spent up to now is       30.5 secs

     total energy              =    -190.71316648 Ry
     estimated scf accuracy    <       0.01565903 Ry

     iteration # 11     ecut=    40.00 Ry     beta= 0.70
     Davidson diagonalization with overlap
     ethr =  8.70E-05,  avg # of iterations =  2.0

     total cpu time spent up to now is       31.4 secs

     total energy              =    -190.71684405 Ry
     estimated scf accuracy    <       0.00158285 Ry

     iteration # 12     ecut=    40.00 Ry     beta= 0.70
     Davidson diagonalization with overlap
     ethr =  8.79E-06,  avg # of iterations =  1.5

     total cpu time spent up to now is       32.1 secs

     total energy              =    -190.71660207 Ry
     estimated scf accuracy    <       0.00087595 Ry

     iteration # 13     ecut=    40.00 Ry     beta= 0.70
     Davidson diagonalization with overlap
     ethr =  4.87E-06,  avg # of iterations =  2.0

     total cpu time spent up to now is       33.1 secs

     total energy              =    -190.71685631 Ry
     estimated scf accuracy    <       0.00066809 Ry

     iteration # 14     ecut=    40.00 Ry     beta= 0.70
     Davidson diagonalization with overlap
     ethr =  3.71E-06,  avg # of iterations =  1.3

     total cpu time spent up to now is       33.9 secs

     total energy              =    -190.71647020 Ry
     estimated scf accuracy    <       0.00136095 Ry

     iteration # 15     ecut=    40.00 Ry     beta= 0.70
     Davidson diagonalization with overlap
     ethr =  3.71E-06,  avg # of iterations =  3.0

     total cpu time spent up to now is       34.9 secs

     total energy              =    -190.71607663 Ry
     estimated scf accuracy    <       0.00257638 Ry

     iteration # 16     ecut=    40.00 Ry     beta= 0.70
     Davidson diagonalization with overlap
     ethr =  3.71E-06,  avg # of iterations =  5.3

     total cpu time spent up to now is       36.1 secs

     total energy              =    -190.70824279 Ry
     estimated scf accuracy    <       0.05904056 Ry

     iteration # 17     ecut=    40.00 Ry     beta= 0.70
     Davidson diagonalization with overlap
     ethr =  3.71E-06,  avg # of iterations =  4.5

     total cpu time spent up to now is       37.4 secs

     total energy              =    -190.71662337 Ry
     estimated scf accuracy    <       0.00023483 Ry

     iteration # 18     ecut=    40.00 Ry     beta= 0.70
     Davidson diagonalization with overlap
     ethr =  1.30E-06,  avg # of iterations =  2.1

     total cpu time spent up to now is       38.2 secs

     total energy              =    -190.71664724 Ry
     estimated scf accuracy    <       0.00005010 Ry

     iteration # 19     ecut=    40.00 Ry     beta= 0.70
     Davidson diagonalization with overlap
     ethr =  2.78E-07,  avg # of iterations =  1.6

     total cpu time spent up to now is       39.0 secs

     total energy              =    -190.71663104 Ry
     estimated scf accuracy    <       0.00004487 Ry

     iteration # 20     ecut=    40.00 Ry     beta= 0.70
     Davidson diagonalization with overlap
     ethr =  2.49E-07,  avg # of iterations =  2.0

     total cpu time spent up to now is       39.9 secs

     total energy              =    -190.71663928 Ry
     estimated scf accuracy    <       0.00001428 Ry

     iteration # 21     ecut=    40.00 Ry     beta= 0.70
     Davidson diagonalization with overlap
     ethr =  7.93E-08,  avg # of iterations =  2.0

     total cpu time spent up to now is       40.7 secs

     total energy              =    -190.71664116 Ry
     estimated scf accuracy    <       0.00000319 Ry

     iteration # 22     ecut=    40.00 Ry     beta= 0.70
     Davidson diagonalization with overlap
     ethr =  1.77E-08,  avg # of iterations =  1.1

     total cpu time spent up to now is       41.5 secs

     total energy              =    -190.71663802 Ry
     estimated scf accuracy    <       0.00000617 Ry

     iteration # 23     ecut=    40.00 Ry     beta= 0.70
     Davidson diagonalization with overlap
     ethr =  1.77E-08,  avg # of iterations =  3.1

     total cpu time spent up to now is       42.5 secs

     total energy              =    -190.71663966 Ry
     estimated scf accuracy    <       0.00000144 Ry

     iteration # 24     ecut=    40.00 Ry     beta= 0.70
     Davidson diagonalization with overlap
     ethr =  7.99E-09,  avg # of iterations =  2.0

     total cpu time spent up to now is       43.3 secs

     total energy              =    -190.71663950 Ry
     estimated scf accuracy    <       0.00000078 Ry

     iteration # 25     ecut=    40.00 Ry     beta= 0.70
     Davidson diagonalization with overlap
     ethr =  4.36E-09,  avg # of iterations =  2.0

     total cpu time spent up to now is       44.2 secs

     total energy              =    -190.71663949 Ry
     estimated scf accuracy    <       0.00000015 Ry

     iteration # 26     ecut=    40.00 Ry     beta= 0.70
     Davidson diagonalization with overlap
     ethr =  8.52E-10,  avg # of iterations =  2.6

     total cpu time spent up to now is       45.2 secs

     total energy              =    -190.71663954 Ry
     estimated scf accuracy    <       0.00000004 Ry

     iteration # 27     ecut=    40.00 Ry     beta= 0.70
     Davidson diagonalization with overlap
     ethr =  2.29E-10,  avg # of iterations =  2.0

     total cpu time spent up to now is       46.0 secs

     total energy              =    -190.71663954 Ry
     estimated scf accuracy    <       0.00000001 Ry

     iteration # 28     ecut=    40.00 Ry     beta= 0.70
     Davidson diagonalization with overlap
     ethr =  5.60E-11,  avg # of iterations =  2.1

     total cpu time spent up to now is       46.8 secs

     End of self-consistent calculation

          k = 0.0000 0.0000 0.0000 (  1459 PWs)   bands (ev):

    -9.4387  -9.4387  -9.4387  -9.3820  -9.3820  -6.8177   4.8700   5.2993
     5.2993

          k =-0.1269 0.1269-0.1269 (  1480 PWs)   bands (ev):

    -9.4469  -9.4364  -9.4364  -9.3822  -9.3822  -6.6617   3.1546   5.0955
     5.0955

          k =-0.2538 0.2538-0.2538 (  1495 PWs)   bands (ev):

    -9.4654  -9.4312  -9.4312  -9.3818  -9.3818  -6.2281   1.2482   4.7073
     4.7073

          k =-0.3807 0.3807-0.3807 (  1504 PWs)   bands (ev):

    -9.4827  -9.4269  -9.4269  -9.3804  -9.3804  -5.6614  -0.2695   4.4041
     4.4041

          k = 0.5076-0.5076 0.5076 (  1502 PWs)   bands (ev):

    -9.4897  -9.4254  -9.4254  -9.3793  -9.3793  -5.3526  -0.9046   4.2946
     4.2946

          k = 0.0000 0.2538 0.0000 (  1483 PWs)   bands (ev):

    -9.4519  -9.4342  -9.4342  -9.3841  -9.3806  -6.6094   3.0488   4.7334
     4.7334

          k =-0.1269 0.3807-0.1269 (  1499 PWs)   bands (ev):

    -9.4670  -9.4298  -9.4287  -9.3856  -9.3796  -6.2660   1.6374   4.2433
     4.3017

          k =-0.2538 0.5076-0.2538 (  1497 PWs)   bands (ev):

    -9.4828  -9.4260  -9.4238  -9.3848  -9.3783  -5.7282   0.1308   3.6784
     4.0396

          k = 0.6345-0.3807 0.6345 (  1507 PWs)   bands (ev):

    -9.4916  -9.4241  -9.4223  -9.3823  -9.3787  -5.2870  -0.7919   3.2857
     4.0275

          k = 0.5076-0.2538 0.5076 (  1500 PWs)   bands (ev):

    -9.4890  -9.4242  -9.4237  -9.3811  -9.3803  -5.3957  -0.5806   3.1759
     4.2609

          k = 0.3807-0.1269 0.3807 (  1509 PWs)   bands (ev):

    -9.4762  -9.4282  -9.4267  -9.3835  -9.3803  -5.9210   0.6001   3.4148
     4.6654

          k = 0.2538 0.0000 0.2538 (  1498 PWs)   bands (ev):

    -9.4590  -9.4338  -9.4313  -9.3837  -9.3810  -6.4118   2.0803   4.1096
     5.0518

          k = 0.0000 0.5076 0.0000 (  1491 PWs)   bands (ev):

    -9.4801  -9.4225  -9.4225  -9.3895  -9.3773  -6.0243   1.1707   3.8211
     3.8211

          k =-0.1269 0.6345-0.1269 (  1511 PWs)   bands (ev):

    -9.4931  -9.4182  -9.4170  -9.3912  -9.3760  -5.5670   0.1574   3.1599
     3.5252

          k = 0.7615-0.2538 0.7615 (  1504 PWs)   bands (ev):

    -9.4993  -9.4181  -9.4146  -9.3891  -9.3767  -5.1023  -0.6769   2.4111
     3.5069

          k = 0.6345-0.1269 0.6345 (  1509 PWs)   bands (ev):

    -9.4972  -9.4202  -9.4165  -9.3851  -9.3799  -5.0334  -0.7760   2.0446
     3.7681

          k = 0.5076 0.0000 0.5076 (  1506 PWs)   bands (ev):

    -9.4884  -9.4229  -9.4218  -9.3830  -9.3815  -5.4370  -0.1443   2.3150
     4.2282

          k = 0.0000 0.7615 0.0000 (  1512 PWs)   bands (ev):

    -9.5050  -9.4105  -9.4105  -9.3957  -9.3741  -5.2235  -0.4099   3.1686
     3.1686

          k = 0.8884-0.1269 0.8884 (  1514 PWs)   bands (ev):

    -9.5098  -9.4096  -9.4080  -9.3956  -9.3739  -4.8652  -0.9355   2.5536
     3.0910

          k = 0.7615 0.0000 0.7615 (  1514 PWs)   bands (ev):

    -9.5058  -9.4144  -9.4101  -9.3912  -9.3768  -4.7781  -0.9976   1.8935
     3.3118

          k = 0.0000-1.0153 0.0000 (  1524 PWs)   bands (ev):

    -9.5146  -9.4055  -9.4055  -9.3986  -9.3727  -4.7436  -1.1523   2.9389
     2.9389

          k =-0.2538 0.5076 0.0000 (  1510 PWs)   bands (ev):

    -9.4812  -9.4249  -9.4230  -9.3872  -9.3782  -5.8630   0.6855   3.1835
     4.1508

          k = 0.6345-0.3807 0.8884 (  1507 PWs)   bands (ev):

    -9.4923  -9.4225  -9.4183  -9.3863  -9.3784  -5.3440  -0.3443   2.5692
     3.7738

          k = 0.5076-0.2538 0.7615 (  1514 PWs)   bands (ev):

    -9.4966  -9.4220  -9.4165  -9.3848  -9.3792  -5.0674  -0.8297   2.3928
     3.6004

          k = 0.7615-0.2538 1.0153 (  1502 PWs)   bands (ev):

    -9.5019  -9.4157  -9.4115  -9.3922  -9.3755  -5.1361  -0.5192   2.6092
     3.1240

          k = 0.6345-0.1269 0.8884 (  1514 PWs)   bands (ev):

    -9.5036  -9.4176  -9.4097  -9.3900  -9.3776  -4.8298  -0.9164   2.0589
     2.9669

          k = 0.5076-0.0000 0.7615 (  1511 PWs)   bands (ev):

    -9.4997  -9.4202  -9.4122  -9.3872  -9.3794  -4.9404  -0.7739   1.9316
     3.2675

          k =-0.2538-1.0153 0.0000 (  1514 PWs)   bands (ev):

    -9.5099  -9.4115  -9.4068  -9.3944  -9.3748  -4.7245  -1.0831   2.5257
     2.6188

          k =-0.5076-1.0153 0.0000 (  1540 PWs)   bands (ev):

    -9.5048  -9.4185  -9.4078  -9.3899  -9.3787  -4.7051  -1.0065   2.1808
     2.3607

     highest occupied level (ev):     5.2993

!    total energy              =    -190.71663954 Ry
     estimated scf accuracy    <          1.4E-09 Ry

     The total energy is the sum of the following terms:
     one-electron contribution =    -117.19781358 Ry
     hartree contribution      =      73.41371048 Ry
     xc contribution           =     -56.99010900 Ry
     ewald contribution        =     -89.94242744 Ry

     convergence has been achieved in  28 iterations

     Forces acting on atoms (cartesian axes, Ry/au):

     atom    1 type  1   force =     0.00000000    0.00000000    0.00000000
     atom    2 type  2   force =     0.00000000    0.00000000    0.00000000
     The non-local contrib.  to forces
     atom    1 type  1   force =    -0.00000000    0.00000000    0.00000000
     atom    2 type  2   force =     0.00000000   -0.00000000    0.00000000
     The ionic contribution  to forces
     atom    1 type  1   force =    -0.00000000    0.00000000   -0.00000000
     atom    2 type  2   force =     0.00000000   -0.00000000   -0.00000000
     The local contribution  to forces
     atom    1 type  1   force =     0.00000000   -0.00000000   -0.00000000
     atom    2 type  2   force =    -0.00000000   -0.00000000    0.00000000
     The core correction contribution to forces
     atom    1 type  1   force =     0.00000000   -0.00000000   -0.00000000
     atom    2 type  2   force =    -0.00000000    0.00000000    0.00000000
     The Hubbard contrib.    to forces
     atom    1 type  1   force =     0.00000000    0.00000000    0.00000000
     atom    2 type  2   force =     0.00000000    0.00000000    0.00000000
     The SCF correction term to forces
     atom    1 type  1   force =    -0.00000000   -0.00000000    0.00000000
     atom    2 type  2   force =    -0.00000000   -0.00000000   -0.00000000

     Total force =     0.000000     Total SCF correction =     0.000000


     Computing stress (Cartesian axis) and pressure

          total   stress  (Ry/bohr**3)                   (kbar)     P=      -72.06
  -0.00048985   0.00000000   0.00000000          -72.06        0.00        0.00
   0.00000000  -0.00048985   0.00000000            0.00      -72.06        0.00
   0.00000000   0.00000000  -0.00048985            0.00        0.00      -72.06

     Energy error            =      8.5E-03 Ry
     Gradient error          =      6.7E-32 Ry/Bohr
     Cell gradient error     =      7.2E+01 kbar

     number of scf cycles    =   2
     number of bfgs steps    =   1

     enthalpy           old  =    -190.7081107673 Ry
     enthalpy           new  =    -190.7166395430 Ry

     CASE: enthalpy          _new < enthalpy          _old

     new trust radius        =       0.0841140345 bohr
     new conv_thr            =            1.0E-10 Ry

     new unit-cell volume =    314.51585 a.u.^3 (    46.60644 Ang^3 )
     density =      5.15355 g/cm^3

CELL_PARAMETERS (alat= 11.21704970)
  -0.481199908   0.000000000   0.481199908
   0.000000000   0.481199908   0.481199908
  -0.481199908   0.481199908   0.000000000

ATOMIC_POSITIONS (alat)
Ga           -0.0000000000       -0.0000000000        0.0000000000
As            0.2405999541        0.2405999541        0.2405999541



     Writing config-only to output data dir ./SCRATCH/gallium arsenide.save/
     NEW-OLD atomic charge density approx. for the potential
     extrapolated charge   16.70443, renormalised to   18.00000

     total cpu time spent up to now is       54.6 secs

     Self-consistent Calculation

     iteration #  1     ecut=    40.00 Ry     beta= 0.70
     Davidson diagonalization with overlap
     ethr =  1.00E-06,  avg # of iterations = 10.0

     total cpu time spent up to now is       56.6 secs

     total energy              =    -187.88590334 Ry
     estimated scf accuracy    <       2.54553941 Ry

     iteration #  2     ecut=    40.00 Ry     beta= 0.70
     Davidson diagonalization with overlap
     ethr =  1.00E-02,  avg # of iterations =  3.5

     total cpu time spent up to now is       57.7 secs

     total energy              =    -187.20411098 Ry
     estimated scf accuracy    <      41.41984602 Ry

     iteration #  3     ecut=    40.00 Ry     beta= 0.70
     Davidson diagonalization with overlap
     ethr =  1.00E-02,  avg # of iterations =  3.1

     total cpu time spent up to now is       58.7 secs

     total energy              =    -190.79407847 Ry
     estimated scf accuracy    <       1.11821881 Ry

     iteration #  4     ecut=    40.00 Ry     beta= 0.70
     Davidson diagonalization with overlap
     ethr =  6.21E-03,  avg # of iterations =  1.0

     total cpu time spent up to now is       59.5 secs

     total energy              =    -190.75182532 Ry
     estimated scf accuracy    <       0.50944718 Ry

     iteration #  5     ecut=    40.00 Ry     beta= 0.70
     Davidson diagonalization with overlap
     ethr =  2.83E-03,  avg # of iterations =  1.0

     total cpu time spent up to now is       60.2 secs

     total energy              =    -190.74691764 Ry
     estimated scf accuracy    <       0.21436309 Ry

     iteration #  6     ecut=    40.00 Ry     beta= 0.70
     Davidson diagonalization with overlap
     ethr =  1.19E-03,  avg # of iterations =  1.0

     total cpu time spent up to now is       61.0 secs

     total energy              =    -190.74380143 Ry
     estimated scf accuracy    <       0.12602436 Ry

     iteration #  7     ecut=    40.00 Ry     beta= 0.70
     Davidson diagonalization with overlap
     ethr =  7.00E-04,  avg # of iterations =  1.0

     total cpu time spent up to now is       61.8 secs

     total energy              =    -190.74173510 Ry
     estimated scf accuracy    <       0.10279932 Ry

     iteration #  8     ecut=    40.00 Ry     beta= 0.70
     Davidson diagonalization with overlap
     ethr =  5.71E-04,  avg # of iterations =  1.0

     total cpu time spent up to now is       62.5 secs

     total energy              =    -190.74213703 Ry
     estimated scf accuracy    <       0.08928799 Ry

     iteration #  9     ecut=    40.00 Ry     beta= 0.70
     Davidson diagonalization with overlap
     ethr =  4.96E-04,  avg # of iterations =  1.0

     total cpu time spent up to now is       63.2 secs

     total energy              =    -190.73213201 Ry
     estimated scf accuracy    <       0.08982771 Ry

     iteration # 10     ecut=    40.00 Ry     beta= 0.70
     Davidson diagonalization with overlap
     ethr =  4.96E-04,  avg # of iterations =  1.0

     total cpu time spent up to now is       64.0 secs

     total energy              =    -190.72864526 Ry
     estimated scf accuracy    <       0.04833291 Ry

     iteration # 11     ecut=    40.00 Ry     beta= 0.70
     Davidson diagonalization with overlap
     ethr =  2.69E-04,  avg # of iterations =  1.0

     total cpu time spent up to now is       64.7 secs

     total energy              =    -190.73391584 Ry
     estimated scf accuracy    <       0.02257848 Ry

     iteration # 12     ecut=    40.00 Ry     beta= 0.70
     Davidson diagonalization with overlap
     ethr =  1.25E-04,  avg # of iterations =  1.0

     total cpu time spent up to now is       65.5 secs

     total energy              =    -190.73053055 Ry
     estimated scf accuracy    <       0.04166533 Ry

     iteration # 13     ecut=    40.00 Ry     beta= 0.70
     Davidson diagonalization with overlap
     ethr =  1.25E-04,  avg # of iterations =  1.0

     total cpu time spent up to now is       66.2 secs

     total energy              =    -190.72813307 Ry
     estimated scf accuracy    <       0.02521643 Ry

     iteration # 14     ecut=    40.00 Ry     beta= 0.70
     Davidson diagonalization with overlap
     ethr =  1.25E-04,  avg # of iterations =  1.0

     total cpu time spent up to now is       67.0 secs

     total energy              =    -190.72221242 Ry
     estimated scf accuracy    <       0.01813473 Ry

     iteration # 15     ecut=    40.00 Ry     beta= 0.70
     Davidson diagonalization with overlap
     ethr =  1.01E-04,  avg # of iterations =  2.0

     total cpu time spent up to now is       67.9 secs

     total energy              =    -190.72579146 Ry
     estimated scf accuracy    <       0.00201879 Ry

     iteration # 16     ecut=    40.00 Ry     beta= 0.70
     Davidson diagonalization with overlap
     ethr =  1.12E-05,  avg # of iterations =  1.0

     total cpu time spent up to now is       68.6 secs

     total energy              =    -190.72575360 Ry
     estimated scf accuracy    <       0.00143439 Ry

     iteration # 17     ecut=    40.00 Ry     beta= 0.70
     Davidson diagonalization with overlap
     ethr =  7.97E-06,  avg # of iterations =  1.0

     total cpu time spent up to now is       69.4 secs

     total energy              =    -190.72564202 Ry
     estimated scf accuracy    <       0.00125577 Ry

     iteration # 18     ecut=    40.00 Ry     beta= 0.70
     Davidson diagonalization with overlap
     ethr =  6.98E-06,  avg # of iterations =  1.0

     total cpu time spent up to now is       70.1 secs

     total energy              =    -190.72568490 Ry
     estimated scf accuracy    <       0.00110875 Ry

     iteration # 19     ecut=    40.00 Ry     beta= 0.70
     Davidson diagonalization with overlap
     ethr =  6.16E-06,  avg # of iterations =  2.0

     total cpu time spent up to now is       71.0 secs

     total energy              =    -190.72586035 Ry
     estimated scf accuracy    <       0.00197850 Ry

     iteration # 20     ecut=    40.00 Ry     beta= 0.70
     Davidson diagonalization with overlap
     ethr =  6.16E-06,  avg # of iterations =  1.0

     total cpu time spent up to now is       71.7 secs

     total energy              =    -190.72538167 Ry
     estimated scf accuracy    <       0.00234201 Ry

     iteration # 21     ecut=    40.00 Ry     beta= 0.70
     Davidson diagonalization with overlap
     ethr =  6.16E-06,  avg # of iterations =  2.0

     total cpu time spent up to now is       72.6 secs

     total energy              =    -190.72518539 Ry
     estimated scf accuracy    <       0.00069738 Ry

     iteration # 22     ecut=    40.00 Ry     beta= 0.70
     Davidson diagonalization with overlap
     ethr =  3.87E-06,  avg # of iterations =  2.0

     total cpu time spent up to now is       73.5 secs

     total energy              =    -190.72528549 Ry
     estimated scf accuracy    <       0.00002727 Ry

     iteration # 23     ecut=    40.00 Ry     beta= 0.70
     Davidson diagonalization with overlap
     ethr =  1.51E-07,  avg # of iterations =  3.3

     total cpu time spent up to now is       74.5 secs

     total energy              =    -190.72529735 Ry
     estimated scf accuracy    <       0.00000193 Ry

     iteration # 24     ecut=    40.00 Ry     beta= 0.70
     Davidson diagonalization with overlap
     ethr =  1.07E-08,  avg # of iterations =  2.2

     total cpu time spent up to now is       75.3 secs

     total energy              =    -190.72529740 Ry
     estimated scf accuracy    <       0.00000049 Ry

     iteration # 25     ecut=    40.00 Ry     beta= 0.70
     Davidson diagonalization with overlap
     ethr =  2.73E-09,  avg # of iterations =  2.2

     total cpu time spent up to now is       76.4 secs

     total energy              =    -190.72529759 Ry
     estimated scf accuracy    <       0.00000008 Ry

     iteration # 26     ecut=    40.00 Ry     beta= 0.70
     Davidson diagonalization with overlap
     ethr =  4.23E-10,  avg # of iterations =  1.7

     total cpu time spent up to now is       77.1 secs

     total energy              =    -190.72529759 Ry
     estimated scf accuracy    <       0.00000010 Ry

     iteration # 27     ecut=    40.00 Ry     beta= 0.70
     Davidson diagonalization with overlap
     ethr =  4.23E-10,  avg # of iterations =  1.0

     total cpu time spent up to now is       77.9 secs

     total energy              =    -190.72529756 Ry
     estimated scf accuracy    <       0.00000012 Ry

     iteration # 28     ecut=    40.00 Ry     beta= 0.70
     Davidson diagonalization with overlap
     ethr =  4.23E-10,  avg # of iterations =  2.0

     total cpu time spent up to now is       78.8 secs

     total energy              =    -190.72529755 Ry
     estimated scf accuracy    <       0.00000003 Ry

     iteration # 29     ecut=    40.00 Ry     beta= 0.70
     Davidson diagonalization with overlap
     ethr =  1.80E-10,  avg # of iterations =  2.0

     total cpu time spent up to now is       79.7 secs

     total energy              =    -190.72529756 Ry
     estimated scf accuracy    <          3.4E-09 Ry

     iteration # 30     ecut=    40.00 Ry     beta= 0.70
     Davidson diagonalization with overlap
     ethr =  1.92E-11,  avg # of iterations =  3.2

     total cpu time spent up to now is       80.7 secs

     total energy              =    -190.72529756 Ry
     estimated scf accuracy    <          9.7E-10 Ry

     iteration # 31     ecut=    40.00 Ry     beta= 0.70
     Davidson diagonalization with overlap
     ethr =  5.37E-12,  avg # of iterations =  2.2

     total cpu time spent up to now is       81.6 secs

     total energy              =    -190.72529756 Ry
     estimated scf accuracy    <          2.2E-10 Ry

     iteration # 32     ecut=    40.00 Ry     beta= 0.70
     Davidson diagonalization with overlap
     ethr =  1.23E-12,  avg # of iterations =  2.0

     total cpu time spent up to now is       82.5 secs

     End of self-consistent calculation

          k = 0.0000 0.0000 0.0000 (  1459 PWs)   bands (ev):

    -8.7495  -8.7495  -8.7495  -8.6786  -8.6786  -6.4847   6.0864   6.0864
     6.1498

          k =-0.1299 0.1299-0.1299 (  1480 PWs)   bands (ev):

    -8.7608  -8.7464  -8.7464  -8.6788  -8.6788  -6.3113   4.0212   5.8589
     5.8589

          k =-0.2598 0.2598-0.2598 (  1495 PWs)   bands (ev):

    -8.7859  -8.7398  -8.7398  -8.6782  -8.6782  -5.8275   1.9311   5.4322
     5.4322

          k =-0.3897 0.3897-0.3897 (  1504 PWs)   bands (ev):

    -8.8087  -8.7343  -8.7343  -8.6764  -8.6764  -5.1839   0.2580   5.1030
     5.1030

          k = 0.5195-0.5195 0.5195 (  1502 PWs)   bands (ev):

    -8.8177  -8.7325  -8.7325  -8.6750  -8.6750  -4.8223  -0.4558   4.9847
     4.9847

          k =-0.0000 0.2598-0.0000 (  1483 PWs)   bands (ev):

    -8.7674  -8.7436  -8.7436  -8.6813  -8.6768  -6.2535   3.9569   5.4535
     5.4535

          k =-0.1299 0.3897-0.1299 (  1499 PWs)   bands (ev):

    -8.7875  -8.7379  -8.7365  -8.6833  -8.6754  -5.8712   2.3963   4.9371
     4.9809

          k =-0.2598 0.5195-0.2598 (  1497 PWs)   bands (ev):

    -8.8083  -8.7331  -8.7303  -8.6824  -8.6738  -5.2641   0.7245   4.3410
     4.6984

          k = 0.6494-0.3897 0.6494 (  1507 PWs)   bands (ev):

    -8.8198  -8.7308  -8.7283  -8.6790  -8.6742  -4.7509  -0.3147   3.9207
     4.6887

          k = 0.5195-0.2598 0.5195 (  1500 PWs)   bands (ev):

    -8.8165  -8.7309  -8.7301  -8.6774  -8.6764  -4.8790  -0.0748   3.7930
     4.9458

          k = 0.3897-0.1299 0.3897 (  1509 PWs)   bands (ev):

    -8.7998  -8.7358  -8.7340  -8.6806  -8.6764  -5.4828   1.2461   4.0296
     5.3899

          k = 0.2598 0.0000 0.2598 (  1498 PWs)   bands (ev):

    -8.7772  -8.7430  -8.7399  -8.6808  -8.6773  -6.0333   2.8735   4.7651
     5.8156

          k =-0.0000 0.5195-0.0000 (  1491 PWs)   bands (ev):

    -8.8042  -8.7285  -8.7285  -8.6886  -8.6725  -5.6027   1.9296   4.4556
     4.4556

          k =-0.1299 0.6494-0.1299 (  1511 PWs)   bands (ev):

    -8.8208  -8.7230  -8.7214  -8.6909  -8.6709  -5.0864   0.8092   3.7406
     4.1357

          k = 0.7793-0.2598 0.7793 (  1504 PWs)   bands (ev):

    -8.8288  -8.7231  -8.7184  -8.6880  -8.6717  -4.5456  -0.1383   2.9350
     4.1180

          k = 0.6494-0.1299 0.6494 (  1509 PWs)   bands (ev):

    -8.8264  -8.7258  -8.7207  -8.6827  -8.6760  -4.4611  -0.2563   2.5339
     4.4040

          k = 0.5195 0.0000 0.5195 (  1506 PWs)   bands (ev):

    -8.8153  -8.7292  -8.7275  -8.6800  -8.6781  -4.9325   0.4577   2.8173
     4.9083

          k =-0.0000 0.7793-0.0000 (  1512 PWs)   bands (ev):

    -8.8355  -8.7130  -8.7130  -8.6971  -8.6683  -4.6953   0.1893   3.7489
     3.7489

          k = 0.9092-0.1299 0.9092 (  1514 PWs)   bands (ev):

    -8.8414  -8.7121  -8.7097  -8.6968  -8.6682  -4.2723  -0.4094   3.0722
     3.6657

          k = 0.7793 0.0000 0.7793 (  1514 PWs)   bands (ev):

    -8.8366  -8.7184  -8.7125  -8.6908  -8.6720  -4.1626  -0.4861   2.3468
     3.9062

          k = 0.0000-1.0391 0.0000 (  1524 PWs)   bands (ev):

    -8.8473  -8.7065  -8.7065  -8.7009  -8.6665  -4.1271  -0.6610   3.5008
     3.5008

          k =-0.2598 0.5195-0.0000 (  1510 PWs)   bands (ev):

    -8.8059  -8.7317  -8.7292  -8.6856  -8.6737  -5.4195   1.3761   3.7595
     4.8254

          k = 0.6494-0.3897 0.9092 (  1507 PWs)   bands (ev):

    -8.8202  -8.7286  -8.7232  -8.6844  -8.6739  -4.8257   0.2271   3.1104
     4.4070

          k = 0.5195-0.2598 0.7793 (  1514 PWs)   bands (ev):

    -8.8256  -8.7280  -8.7210  -8.6824  -8.6750  -4.4989  -0.3308   2.9326
     4.2141

          k = 0.7793-0.2598 1.0391 (  1502 PWs)   bands (ev):

    -8.8317  -8.7198  -8.7145  -8.6922  -8.6703  -4.5902   0.0622   3.1364
     3.6919

          k = 0.6494-0.1299 0.9092 (  1514 PWs)   bands (ev):

    -8.8340  -8.7222  -8.7123  -8.6891  -8.6730  -4.2247  -0.3934   2.5337
     3.5191

          k = 0.5195-0.0000 0.7793 (  1511 PWs)   bands (ev):

    -8.8292  -8.7256  -8.7154  -8.6855  -8.6754  -4.3548  -0.2334   2.3944
     3.8490

          k =-0.2598-1.0391 0.0000 (  1514 PWs)   bands (ev):

    -8.8416  -8.7143  -8.7087  -8.6949  -8.6694  -4.1014  -0.5806   3.0456
     3.1371

          k =-0.5195-1.0391 0.0000 (  1540 PWs)   bands (ev):

    -8.8353  -8.7231  -8.7099  -8.6888  -8.6744  -4.0753  -0.4905   2.6651
     2.8467

     highest occupied level (ev):     6.1498

!    total energy              =    -190.72529756 Ry
     estimated scf accuracy    <          8.0E-12 Ry

     The total energy is the sum of the following terms:
     one-electron contribution =    -113.79120541 Ry
     hartree contribution      =      72.18120130 Ry
     xc contribution           =     -57.06447919 Ry
     ewald contribution        =     -92.05081425 Ry

     convergence has been achieved in  32 iterations

     Forces acting on atoms (cartesian axes, Ry/au):

     atom    1 type  1   force =    -0.00000000    0.00000000    0.00000000
     atom    2 type  2   force =     0.00000000   -0.00000000   -0.00000000
     The non-local contrib.  to forces
     atom    1 type  1   force =     0.00000000   -0.00000000    0.00000000
     atom    2 type  2   force =     0.00000000   -0.00000000    0.00000000
     The ionic contribution  to forces
     atom    1 type  1   force =    -0.00000000    0.00000000    0.00000000
     atom    2 type  2   force =     0.00000000    0.00000000   -0.00000000
     The local contribution  to forces
     atom    1 type  1   force =     0.00000000   -0.00000000   -0.00000000
     atom    2 type  2   force =    -0.00000000    0.00000000    0.00000000
     The core correction contribution to forces
     atom    1 type  1   force =     0.00000000   -0.00000000   -0.00000000
     atom    2 type  2   force =    -0.00000000   -0.00000000    0.00000000
     The Hubbard contrib.    to forces
     atom    1 type  1   force =     0.00000000    0.00000000    0.00000000
     atom    2 type  2   force =     0.00000000    0.00000000    0.00000000
     The SCF correction term to forces
     atom    1 type  1   force =     0.00000000   -0.00000000    0.00000000
     atom    2 type  2   force =    -0.00000000   -0.00000000   -0.00000000

     Total force =     0.000000     Total SCF correction =     0.000000


     Computing stress (Cartesian axis) and pressure

          total   stress  (Ry/bohr**3)                   (kbar)     P=      -38.21
  -0.00025975  -0.00000000   0.00000000          -38.21       -0.00        0.00
   0.00000000  -0.00025975   0.00000000            0.00      -38.21        0.00
  -0.00000000   0.00000000  -0.00025975           -0.00        0.00      -38.21

     Energy error            =      8.7E-03 Ry
     Gradient error          =      1.7E-32 Ry/Bohr
     Cell gradient error     =      3.8E+01 kbar

     number of scf cycles    =   3
     number of bfgs steps    =   2

     enthalpy           old  =    -190.7166395430 Ry
     enthalpy           new  =    -190.7252975576 Ry

     CASE: enthalpy          _new < enthalpy          _old

     new trust radius        =       0.0852483555 bohr
     new conv_thr            =            1.0E-10 Ry

     new unit-cell volume =    292.37885 a.u.^3 (    43.32608 Ang^3 )
     density =      5.54374 g/cm^3

CELL_PARAMETERS (alat= 11.21704970)
  -0.469634518   0.000000000   0.469634518
   0.000000000   0.469634518   0.469634518
  -0.469634518   0.469634518   0.000000000

ATOMIC_POSITIONS (alat)
Ga           -0.0000000000        0.0000000000        0.0000000000
As            0.2348172591        0.2348172591        0.2348172591



     Writing config-only to output data dir ./SCRATCH/gallium arsenide.save/
     NEW-OLD atomic charge density approx. for the potential
     extrapolated charge   16.63735, renormalised to   18.00000

     total cpu time spent up to now is       90.3 secs

     Self-consistent Calculation

     iteration #  1     ecut=    40.00 Ry     beta= 0.70
     Davidson diagonalization with overlap
     ethr =  1.00E-06,  avg # of iterations = 10.0

     total cpu time spent up to now is       92.2 secs

     total energy              =    -187.66919724 Ry
     estimated scf accuracy    <       2.74416864 Ry

     iteration #  2     ecut=    40.00 Ry     beta= 0.70
     Davidson diagonalization with overlap
     ethr =  1.00E-02,  avg # of iterations =  3.4

     total cpu time spent up to now is       93.3 secs

     total energy              =    -186.99772193 Ry
     estimated scf accuracy    <      44.30874765 Ry

     iteration #  3     ecut=    40.00 Ry     beta= 0.70
     Davidson diagonalization with overlap
     ethr =  1.00E-02,  avg # of iterations =  3.0

     total cpu time spent up to now is       94.3 secs

     total energy              =    -190.79936043 Ry
     estimated scf accuracy    <       1.20441238 Ry

     iteration #  4     ecut=    40.00 Ry     beta= 0.70
     Davidson diagonalization with overlap
     ethr =  6.69E-03,  avg # of iterations =  1.0

     total cpu time spent up to now is       95.1 secs

     total energy              =    -190.75198730 Ry
     estimated scf accuracy    <       0.53865959 Ry

     iteration #  5     ecut=    40.00 Ry     beta= 0.70
     Davidson diagonalization with overlap
     ethr =  2.99E-03,  avg # of iterations =  1.0

     total cpu time spent up to now is       95.8 secs

     total energy              =    -190.75259389 Ry
     estimated scf accuracy    <       0.21317685 Ry

     iteration #  6     ecut=    40.00 Ry     beta= 0.70
     Davidson diagonalization with overlap
     ethr =  1.18E-03,  avg # of iterations =  1.0

     total cpu time spent up to now is       96.6 secs

     total energy              =    -190.74640275 Ry
     estimated scf accuracy    <       0.13985960 Ry

     iteration #  7     ecut=    40.00 Ry     beta= 0.70
     Davidson diagonalization with overlap
     ethr =  7.77E-04,  avg # of iterations =  1.0

     total cpu time spent up to now is       97.3 secs

     total energy              =    -190.73528953 Ry
     estimated scf accuracy    <       0.10372685 Ry

     iteration #  8     ecut=    40.00 Ry     beta= 0.70
     Davidson diagonalization with overlap
     ethr =  5.76E-04,  avg # of iterations =  1.0

     total cpu time spent up to now is       98.1 secs

     total energy              =    -190.72523976 Ry
     estimated scf accuracy    <       0.05142648 Ry

     iteration #  9     ecut=    40.00 Ry     beta= 0.70
     Davidson diagonalization with overlap
     ethr =  2.86E-04,  avg # of iterations =  2.0

     total cpu time spent up to now is       98.9 secs

     total energy              =    -190.72875136 Ry
     estimated scf accuracy    <       0.00750404 Ry

     iteration # 10     ecut=    40.00 Ry     beta= 0.70
     Davidson diagonalization with overlap
     ethr =  4.17E-05,  avg # of iterations =  1.0

     total cpu time spent up to now is       99.7 secs

     total energy              =    -190.72563004 Ry
     estimated scf accuracy    <       0.00797458 Ry

     iteration # 11     ecut=    40.00 Ry     beta= 0.70
     Davidson diagonalization with overlap
     ethr =  4.17E-05,  avg # of iterations =  2.0

     total cpu time spent up to now is      100.5 secs

     total energy              =    -190.72737656 Ry
     estimated scf accuracy    <       0.00067482 Ry

     iteration # 12     ecut=    40.00 Ry     beta= 0.70
     Davidson diagonalization with overlap
     ethr =  3.75E-06,  avg # of iterations =  2.0

     total cpu time spent up to now is      101.4 secs

     total energy              =    -190.72744509 Ry
     estimated scf accuracy    <       0.00008633 Ry

     iteration # 13     ecut=    40.00 Ry     beta= 0.70
     Davidson diagonalization with overlap
     ethr =  4.80E-07,  avg # of iterations =  2.2

     total cpu time spent up to now is      102.3 secs

     total energy              =    -190.72745554 Ry
     estimated scf accuracy    <       0.00007282 Ry

     iteration # 14     ecut=    40.00 Ry     beta= 0.70
     Davidson diagonalization with overlap
     ethr =  4.05E-07,  avg # of iterations =  1.0

     total cpu time spent up to now is      103.1 secs

     total energy              =    -190.72746432 Ry
     estimated scf accuracy    <       0.00005872 Ry

     iteration # 15     ecut=    40.00 Ry     beta= 0.70
     Davidson diagonalization with overlap
     ethr =  3.26E-07,  avg # of iterations =  1.0

     total cpu time spent up to now is      103.8 secs

     total energy              =    -190.72745471 Ry
     estimated scf accuracy    <       0.00008049 Ry

     iteration # 16     ecut=    40.00 Ry     beta= 0.70
     Davidson diagonalization with overlap
     ethr =  3.26E-07,  avg # of iterations =  2.0

     total cpu time spent up to now is      104.7 secs

     total energy              =    -190.72743856 Ry
     estimated scf accuracy    <       0.00006886 Ry

     iteration # 17     ecut=    40.00 Ry     beta= 0.70
     Davidson diagonalization with overlap
     ethr =  3.26E-07,  avg # of iterations =  2.0

     total cpu time spent up to now is      105.5 secs

     total energy              =    -190.72743778 Ry
     estimated scf accuracy    <       0.00002312 Ry

     iteration # 18     ecut=    40.00 Ry     beta= 0.70
     Davidson diagonalization with overlap
     ethr =  1.28E-07,  avg # of iterations =  1.0

     total cpu time spent up to now is      106.3 secs

     total energy              =    -190.72743074 Ry
     estimated scf accuracy    <       0.00001586 Ry

     iteration # 19     ecut=    40.00 Ry     beta= 0.70
     Davidson diagonalization with overlap
     ethr =  8.81E-08,  avg # of iterations =  2.1

     total cpu time spent up to now is      107.2 secs

     total energy              =    -190.72743391 Ry
     estimated scf accuracy    <       0.00000248 Ry

     iteration # 20     ecut=    40.00 Ry     beta= 0.70
     Davidson diagonalization with overlap
     ethr =  1.38E-08,  avg # of iterations =  2.0

     total cpu time spent up to now is      108.1 secs

     total energy              =    -190.72743436 Ry
     estimated scf accuracy    <       0.00000023 Ry

     iteration # 21     ecut=    40.00 Ry     beta= 0.70
     Davidson diagonalization with overlap
     ethr =  1.30E-09,  avg # of iterations =  1.8

     total cpu time spent up to now is      108.8 secs

     total energy              =    -190.72743433 Ry
     estimated scf accuracy    <       0.00000008 Ry

     iteration # 22     ecut=    40.00 Ry     beta= 0.70
     Davidson diagonalization with overlap
     ethr =  4.44E-10,  avg # of iterations =  2.7

     total cpu time spent up to now is      109.7 secs

     total energy              =    -190.72743435 Ry
     estimated scf accuracy    <          3.2E-09 Ry

     iteration # 23     ecut=    40.00 Ry     beta= 0.70
     Davidson diagonalization with overlap
     ethr =  1.75E-11,  avg # of iterations =  2.8

     total cpu time spent up to now is      110.7 secs

     End of self-consistent calculation

          k = 0.0000 0.0000 0.0000 (  1459 PWs)   bands (ev):

    -7.9907  -7.9907  -7.9907  -7.9018  -7.9018  -6.1174   6.9794   6.9794
     7.5917

          k =-0.1331 0.1331-0.1331 (  1480 PWs)   bands (ev):

    -8.0069  -7.9867  -7.9867  -7.9021  -7.9021  -5.9239   4.9610   6.7238
     6.7238

          k =-0.2662 0.2662-0.2662 (  1495 PWs)   bands (ev):

    -8.0414  -7.9781  -7.9781  -7.9013  -7.9013  -5.3832   2.6840   6.2533
     6.2533

          k =-0.3992 0.3992-0.3992 (  1504 PWs)   bands (ev):

    -8.0714  -7.9712  -7.9712  -7.8988  -7.8988  -4.6524   0.8428   5.8948
     5.8948

          k = 0.5323-0.5323 0.5323 (  1502 PWs)   bands (ev):

    -8.0829  -7.9690  -7.9690  -7.8970  -7.8970  -4.2277   0.0388   5.7666
     5.7666

          k =-0.0000 0.2662-0.0000 (  1483 PWs)   bands (ev):

    -8.0156  -7.9830  -7.9830  -7.9054  -7.8995  -5.8598   4.9570   6.2677
     6.2677

          k =-0.1331 0.3992-0.1331 (  1499 PWs)   bands (ev):

    -8.0428  -7.9757  -7.9738  -7.9082  -7.8975  -5.4338   3.2359   5.7268
     5.7489

          k =-0.2662 0.5323-0.2662 (  1497 PWs)   bands (ev):

    -8.0701  -7.9696  -7.9661  -7.9069  -7.8955  -4.7490   1.3836   5.0961
     5.4436

          k = 0.6654-0.3992 0.6654 (  1507 PWs)   bands (ev):

    -8.0849  -7.9668  -7.9635  -7.9024  -7.8960  -4.1512   0.2123   4.6440
     5.4371

          k = 0.5323-0.2662 0.5323 (  1500 PWs)   bands (ev):

    -8.0808  -7.9670  -7.9657  -7.9002  -7.8990  -4.3026   0.4855   4.4955
     5.7215

          k = 0.3992-0.1331 0.3992 (  1509 PWs)   bands (ev):

    -8.0593  -7.9730  -7.9708  -7.9044  -7.8989  -4.9967   1.9629   4.7280
     6.2111

          k = 0.2662 0.0000 0.2662 (  1498 PWs)   bands (ev):

    -8.0293  -7.9822  -7.9784  -7.9046  -7.9001  -5.6141   3.7493   5.5056
     6.6821

          k =-0.0000 0.5323-0.0000 (  1491 PWs)   bands (ev):

    -8.0640  -7.9635  -7.9635  -7.9155  -7.8939  -5.1361   2.7824   5.1730
     5.1730

          k =-0.1331 0.6654-0.1331 (  1511 PWs)   bands (ev):

    -8.0848  -7.9565  -7.9543  -7.9186  -7.8917  -4.5544   1.5436   4.3987
     4.8260

          k = 0.7985-0.2662 0.7985 (  1504 PWs)   bands (ev):

    -8.0949  -7.9569  -7.9506  -7.9146  -7.8929  -3.9252   0.4649   3.5315
     4.8091

          k = 0.6654-0.1331 0.6654 (  1509 PWs)   bands (ev):

    -8.0922  -7.9605  -7.9534  -7.9074  -7.8985  -3.8208   0.3235   3.0914
     5.1236

          k = 0.5323 0.0000 0.5323 (  1506 PWs)   bands (ev):

    -8.0787  -7.9648  -7.9621  -7.9038  -7.9013  -4.3720   1.1337   3.3865
     5.6782

          k = 0.0000 0.7985 0.0000 (  1512 PWs)   bands (ev):

    -8.1026  -7.9434  -7.9434  -7.9270  -7.8884  -4.1107   0.8685   4.4050
     4.4050

          k = 0.9316-0.1331 0.9316 (  1514 PWs)   bands (ev):

    -8.1098  -7.9427  -7.9391  -7.9261  -7.8884  -3.6113   0.1850   3.6577
     4.3155

          k = 0.7985 0.0000 0.7985 (  1514 PWs)   bands (ev):

    -8.1042  -7.9509  -7.9426  -7.9182  -7.8934  -3.4717   0.0892   2.8580
     4.5784

          k = 0.0000-1.0647 0.0000 (  1524 PWs)   bands (ev):

    -8.1169  -7.9349  -7.9349  -7.9321  -7.8861  -3.4373  -0.1085   4.1360
     4.1360

          k =-0.2662 0.5323 0.0000 (  1510 PWs)   bands (ev):

    -8.0664  -7.9677  -7.9645  -7.9112  -7.8954  -4.9282   2.1494   4.4109
     5.5899

          k = 0.6654-0.3992 0.9316 (  1507 PWs)   bands (ev):

    -8.0845  -7.9638  -7.9568  -7.9096  -7.8958  -4.2495   0.8663   3.7271
     5.1230

          k = 0.5323-0.2662 0.7985 (  1514 PWs)   bands (ev):

    -8.0914  -7.9631  -7.9540  -7.9068  -7.8972  -3.8625   0.2223   3.5500
     4.9073

          k = 0.7985-0.2662 1.0647 (  1502 PWs)   bands (ev):

    -8.0982  -7.9523  -7.9457  -7.9201  -7.8911  -3.9843   0.7205   3.7330
     4.3327

          k = 0.6654-0.1331 0.9316 (  1514 PWs)   bands (ev):

    -8.1010  -7.9553  -7.9431  -7.9157  -7.8947  -3.5467   0.1952   3.0709
     4.1422

          k = 0.5323-0.0000 0.7985 (  1511 PWs)   bands (ev):

    -8.0954  -7.9598  -7.9470  -7.9110  -7.8978  -3.7001   0.3755   2.9178
     4.5059

          k =-0.2662-1.0647 0.0000 (  1514 PWs)   bands (ev):

    -8.1101  -7.9450  -7.9388  -7.9232  -7.8901  -3.4026  -0.0153   3.6334
     3.7213

          k =-0.5323-1.0647 0.0000 (  1540 PWs)   bands (ev):

    -8.1025  -7.9562  -7.9402  -7.9149  -7.8966  -3.3671   0.0910   3.2121
     3.3933

     highest occupied level (ev):     7.5917

!    total energy              =    -190.72743435 Ry
     estimated scf accuracy    <          7.3E-11 Ry

     The total energy is the sum of the following terms:
     one-electron contribution =    -110.14078634 Ry
     hartree contribution      =      70.87944777 Ry
     xc contribution           =     -57.14840478 Ry
     ewald contribution        =     -94.31769100 Ry

     convergence has been achieved in  23 iterations

     Forces acting on atoms (cartesian axes, Ry/au):

     atom    1 type  1   force =     0.00000000    0.00000000   -0.00000000
     atom    2 type  2   force =     0.00000000   -0.00000000   -0.00000000
     The non-local contrib.  to forces
     atom    1 type  1   force =    -0.00000000   -0.00000000    0.00000000
     atom    2 type  2   force =     0.00000000   -0.00000000    0.00000000
     The ionic contribution  to forces
     atom    1 type  1   force =     0.00000000    0.00000000    0.00000000
     atom    2 type  2   force =    -0.00000000   -0.00000000   -0.00000000
     The local contribution  to forces
     atom    1 type  1   force =     0.00000000   -0.00000000   -0.00000000
     atom    2 type  2   force =    -0.00000000    0.00000000    0.00000000
     The core correction contribution to forces
     atom    1 type  1   force =     0.00000000   -0.00000000   -0.00000000
     atom    2 type  2   force =     0.00000000    0.00000000    0.00000000
     The Hubbard contrib.    to forces
     atom    1 type  1   force =     0.00000000    0.00000000    0.00000000
     atom    2 type  2   force =     0.00000000    0.00000000    0.00000000
     The SCF correction term to forces
     atom    1 type  1   force =     0.00000000    0.00000000   -0.00000000
     atom    2 type  2   force =     0.00000000   -0.00000000   -0.00000000

     Total force =     0.000000     Total SCF correction =     0.000000


     Computing stress (Cartesian axis) and pressure

          total   stress  (Ry/bohr**3)                   (kbar)     P=       13.10
   0.00008903  -0.00000000  -0.00000000           13.10       -0.00       -0.00
  -0.00000000   0.00008903   0.00000000           -0.00       13.10        0.00
  -0.00000000   0.00000000   0.00008903           -0.00        0.00       13.10

     Energy error            =      2.1E-03 Ry
     Gradient error          =      5.2E-32 Ry/Bohr
     Cell gradient error     =      1.3E+01 kbar

     number of scf cycles    =   4
     number of bfgs steps    =   3

     enthalpy           old  =    -190.7252975576 Ry
     enthalpy           new  =    -190.7274343497 Ry

     CASE: enthalpy          _new < enthalpy          _old

     new trust radius        =       0.0207277905 bohr
     new conv_thr            =            1.0E-10 Ry

     new unit-cell volume =    297.72754 a.u.^3 (    44.11867 Ang^3 )
     density =      5.44415 g/cm^3

CELL_PARAMETERS (alat= 11.21704970)
  -0.472481011   0.000000000   0.472481011
   0.000000000   0.472481011   0.472481011
  -0.472481011   0.472481011   0.000000000

ATOMIC_POSITIONS (alat)
Ga           -0.0000000000       -0.0000000000        0.0000000000
As            0.2362405053        0.2362405053        0.2362405053



     Writing config-only to output data dir ./SCRATCH/gallium arsenide.save/
     NEW-OLD atomic charge density approx. for the potential
     extrapolated charge   18.32333, renormalised to   18.00000

     total cpu time spent up to now is      118.5 secs

     Self-consistent Calculation

     iteration #  1     ecut=    40.00 Ry     beta= 0.70
     Davidson diagonalization with overlap
     ethr =  1.00E-06,  avg # of iterations =  6.7

     total cpu time spent up to now is      120.2 secs

     total energy              =    -190.44549840 Ry
     estimated scf accuracy    <       0.25788730 Ry

     iteration #  2     ecut=    40.00 Ry     beta= 0.70
     Davidson diagonalization with overlap
     ethr =  1.43E-03,  avg # of iterations =  3.0

     total cpu time spent up to now is      121.2 secs

     total energy              =    -190.56275192 Ry
     estimated scf accuracy    <       2.38967830 Ry

     iteration #  3     ecut=    40.00 Ry     beta= 0.70
     Davidson diagonalization with overlap
     ethr =  1.43E-03,  avg # of iterations =  2.0

     total cpu time spent up to now is      122.1 secs

     total energy              =    -190.73630739 Ry
     estimated scf accuracy    <       0.19890918 Ry

     iteration #  4     ecut=    40.00 Ry     beta= 0.70
     Davidson diagonalization with overlap
     ethr =  1.11E-03,  avg # of iterations =  1.0

     total cpu time spent up to now is      122.8 secs

     total energy              =    -190.73366502 Ry
     estimated scf accuracy    <       0.07588667 Ry

     iteration #  5     ecut=    40.00 Ry     beta= 0.70
     Davidson diagonalization with overlap
     ethr =  4.22E-04,  avg # of iterations =  1.0

     total cpu time spent up to now is      123.5 secs

     total energy              =    -190.73260244 Ry
     estimated scf accuracy    <       0.03836645 Ry

     iteration #  6     ecut=    40.00 Ry     beta= 0.70
     Davidson diagonalization with overlap
     ethr =  2.13E-04,  avg # of iterations =  1.0

     total cpu time spent up to now is      124.3 secs

     total energy              =    -190.72725186 Ry
     estimated scf accuracy    <       0.02634689 Ry

     iteration #  7     ecut=    40.00 Ry     beta= 0.70
     Davidson diagonalization with overlap
     ethr =  1.46E-04,  avg # of iterations =  1.0

     total cpu time spent up to now is      125.0 secs

     total energy              =    -190.72719448 Ry
     estimated scf accuracy    <       0.00528740 Ry

     iteration #  8     ecut=    40.00 Ry     beta= 0.70
     Davidson diagonalization with overlap
     ethr =  2.94E-05,  avg # of iterations =  2.0

     total cpu time spent up to now is      125.9 secs

     total energy              =    -190.72734300 Ry
     estimated scf accuracy    <       0.00072731 Ry

     iteration #  9     ecut=    40.00 Ry     beta= 0.70
     Davidson diagonalization with overlap
     ethr =  4.04E-06,  avg # of iterations =  2.1

     total cpu time spent up to now is      126.8 secs

     total energy              =    -190.72755350 Ry
     estimated scf accuracy    <       0.00036139 Ry

     iteration # 10     ecut=    40.00 Ry     beta= 0.70
     Davidson diagonalization with overlap
     ethr =  2.01E-06,  avg # of iterations =  2.0

     total cpu time spent up to now is      127.7 secs

     total energy              =    -190.72763859 Ry
     estimated scf accuracy    <       0.00005743 Ry

     iteration # 11     ecut=    40.00 Ry     beta= 0.70
     Davidson diagonalization with overlap
     ethr =  3.19E-07,  avg # of iterations =  2.0

     total cpu time spent up to now is      128.5 secs

     total energy              =    -190.72765116 Ry
     estimated scf accuracy    <       0.00000176 Ry

     iteration # 12     ecut=    40.00 Ry     beta= 0.70
     Davidson diagonalization with overlap
     ethr =  9.75E-09,  avg # of iterations =  3.5

     total cpu time spent up to now is      129.6 secs

     total energy              =    -190.72765160 Ry
     estimated scf accuracy    <       0.00001261 Ry

     iteration # 13     ecut=    40.00 Ry     beta= 0.70
     Davidson diagonalization with overlap
     ethr =  9.75E-09,  avg # of iterations =  2.3

     total cpu time spent up to now is      130.6 secs

     total energy              =    -190.72765069 Ry
     estimated scf accuracy    <       0.00001320 Ry

     iteration # 14     ecut=    40.00 Ry     beta= 0.70
     Davidson diagonalization with overlap
     ethr =  9.75E-09,  avg # of iterations =  2.0

     total cpu time spent up to now is      131.5 secs

     total energy              =    -190.72764860 Ry
     estimated scf accuracy    <       0.00000556 Ry

     iteration # 15     ecut=    40.00 Ry     beta= 0.70
     Davidson diagonalization with overlap
     ethr =  9.75E-09,  avg # of iterations =  2.4

     total cpu time spent up to now is      132.5 secs

     total energy              =    -190.72764965 Ry
     estimated scf accuracy    <       0.00000001 Ry

     iteration # 16     ecut=    40.00 Ry     beta= 0.70
     Davidson diagonalization with overlap
     c_bands:  1 eigenvalues not converged
     ethr =  6.35E-11,  avg # of iterations =  5.9

     total cpu time spent up to now is      133.8 secs

     total energy              =    -190.72778574 Ry
     estimated scf accuracy    <       0.00000182 Ry

     iteration # 17     ecut=    40.00 Ry     beta= 0.70
     Davidson diagonalization with overlap
     ethr =  6.35E-11,  avg # of iterations =  3.1

     total cpu time spent up to now is      134.8 secs

     total energy              =    -190.72778557 Ry
     estimated scf accuracy    <       0.00000144 Ry

     iteration # 18     ecut=    40.00 Ry     beta= 0.70
     Davidson diagonalization with overlap
     ethr =  6.35E-11,  avg # of iterations =  3.0

     total cpu time spent up to now is      135.8 secs

     total energy              =    -190.72778547 Ry
     estimated scf accuracy    <       0.00000083 Ry

     iteration # 19     ecut=    40.00 Ry     beta= 0.70
     Davidson diagonalization with overlap
     ethr =  6.35E-11,  avg # of iterations =  3.6

     total cpu time spent up to now is      136.9 secs

     total energy              =    -190.72778543 Ry
     estimated scf accuracy    <       0.00000051 Ry

     iteration # 20     ecut=    40.00 Ry     beta= 0.70
     Davidson diagonalization with overlap
     ethr =  6.35E-11,  avg # of iterations =  2.1

     total cpu time spent up to now is      137.8 secs

     total energy              =    -190.72778537 Ry
     estimated scf accuracy    <       0.00000032 Ry

     iteration # 21     ecut=    40.00 Ry     beta= 0.70
     Davidson diagonalization with overlap
     ethr =  6.35E-11,  avg # of iterations =  3.1

     total cpu time spent up to now is      138.8 secs

     total energy              =    -190.72778533 Ry
     estimated scf accuracy    <       0.00000013 Ry

     iteration # 22     ecut=    40.00 Ry     beta= 0.70
     Davidson diagonalization with overlap
     ethr =  6.35E-11,  avg # of iterations =  3.6

     total cpu time spent up to now is      139.9 secs

     total energy              =    -190.72778534 Ry
     estimated scf accuracy    <          6.8E-09 Ry

     iteration # 23     ecut=    40.00 Ry     beta= 0.70
     Davidson diagonalization with overlap
     ethr =  3.77E-11,  avg # of iterations =  2.2

     total cpu time spent up to now is      140.7 secs

     total energy              =    -190.72778534 Ry
     estimated scf accuracy    <          4.0E-10 Ry

     iteration # 24     ecut=    40.00 Ry     beta= 0.70
     Davidson diagonalization with overlap
     ethr =  2.20E-12,  avg # of iterations =  2.0

     total cpu time spent up to now is      141.7 secs

     total energy              =    -190.72778534 Ry
     estimated scf accuracy    <          3.4E-10 Ry

     iteration # 25     ecut=    40.00 Ry     beta= 0.70
     Davidson diagonalization with overlap
     ethr =  1.88E-12,  avg # of iterations =  2.0

     total cpu time spent up to now is      142.5 secs

     End of self-consistent calculation

          k = 0.0000 0.0000 0.0000 (  1459 PWs)   bands (ev):

    -8.1851  -8.1851  -8.1851  -8.1011  -8.1011  -6.2099   6.7517   6.7517
     6.7517

          k =-0.1323 0.1323-0.1323 (  1480 PWs)   bands (ev):

    -8.1999  -8.1814  -8.1814  -8.1013  -8.1013  -6.0216   4.7247   6.5034
     6.5034

          k =-0.2646 0.2646-0.2646 (  1495 PWs)   bands (ev):

    -8.2318  -8.1733  -8.1733  -8.1007  -8.1007  -5.4955   2.4935   6.0440
     6.0440

          k =-0.3968 0.3968-0.3968 (  1504 PWs)   bands (ev):

    -8.2597  -8.1668  -8.1668  -8.0983  -8.0983  -4.7869   0.6945   5.6929
     5.6929

          k = 0.5291-0.5291 0.5291 (  1502 PWs)   bands (ev):

    -8.2706  -8.1647  -8.1647  -8.0966  -8.0966  -4.3786  -0.0864   5.5672
     5.5672

          k =-0.0000 0.2646-0.0000 (  1483 PWs)   bands (ev):

    -8.2080  -8.1779  -8.1779  -8.1045  -8.0989  -5.9591   4.7041   6.0602
     6.0602

          k =-0.1323 0.3968-0.1323 (  1499 PWs)   bands (ev):

    -8.2332  -8.1710  -8.1693  -8.1070  -8.0971  -5.5443   3.0233   5.5249
     5.5532

          k =-0.2646 0.5291-0.2646 (  1497 PWs)   bands (ev):

    -8.2587  -8.1653  -8.1620  -8.1058  -8.0952  -4.8792   1.2163   4.9031
     5.2537

          k = 0.6614-0.3968 0.6614 (  1507 PWs)   bands (ev):

    -8.2727  -8.1626  -8.1595  -8.1016  -8.0957  -4.3033   0.0788   4.4591
     5.2463

          k = 0.5291-0.2646 0.5291 (  1500 PWs)   bands (ev):

    -8.2687  -8.1628  -8.1617  -8.0996  -8.0984  -4.4486   0.3434   4.3159
     5.5237

          k = 0.3968-0.1323 0.3968 (  1509 PWs)   bands (ev):

    -8.2486  -8.1685  -8.1664  -8.1035  -8.0984  -5.1196   1.7811   4.5496
     6.0017

          k = 0.2646 0.0000 0.2646 (  1498 PWs)   bands (ev):

    -8.2206  -8.1772  -8.1735  -8.1037  -8.0995  -5.7200   3.5277   5.3170
     6.4611

          k =-0.0000 0.5291-0.0000 (  1491 PWs)   bands (ev):

    -8.2532  -8.1596  -8.1596  -8.1138  -8.0937  -5.2539   2.5651   4.9902
     4.9902

          k =-0.1323 0.6614-0.1323 (  1511 PWs)   bands (ev):

    -8.2729  -8.1530  -8.1510  -8.1166  -8.0916  -4.6887   1.3562   4.2308
     4.6501

          k = 0.7937-0.2646 0.7937 (  1504 PWs)   bands (ev):

    -8.2824  -8.1533  -8.1475  -8.1129  -8.0928  -4.0822   0.3112   3.3791
     4.6330

          k = 0.6614-0.1323 0.6614 (  1509 PWs)   bands (ev):

    -8.2798  -8.1567  -8.1501  -8.1063  -8.0980  -3.9831   0.1760   2.9489
     4.9402

          k = 0.5291 0.0000 0.5291 (  1506 PWs)   bands (ev):

    -8.2669  -8.1607  -8.1583  -8.1029  -8.1006  -4.5138   0.9614   3.2413
     5.4819

          k =-0.0000 0.7937-0.0000 (  1512 PWs)   bands (ev):

    -8.2899  -8.1407  -8.1407  -8.1244  -8.0886  -4.2583   0.6947   4.2378
     4.2378

          k = 0.9260-0.1323 0.9260 (  1514 PWs)   bands (ev):

    -8.2968  -8.1400  -8.1367  -8.1237  -8.0885  -3.7786   0.0329   3.5086
     4.1499

          k = 0.7937 0.0000 0.7937 (  1514 PWs)   bands (ev):

    -8.2913  -8.1476  -8.1401  -8.1163  -8.0931  -3.6470  -0.0578   2.7279
     4.4071

          k = 0.0000-1.0582 0.0000 (  1524 PWs)   bands (ev):

    -8.3035  -8.1328  -8.1328  -8.1292  -8.0863  -3.6121  -0.2497   3.9741
     3.9741

          k =-0.2646 0.5291-0.0000 (  1510 PWs)   bands (ev):

    -8.2554  -8.1635  -8.1605  -8.1099  -8.0951  -5.0523   1.9526   4.2449
     5.3949

          k = 0.6614-0.3968 0.9260 (  1507 PWs)   bands (ev):

    -8.2725  -8.1598  -8.1533  -8.1083  -8.0954  -4.3952   0.7036   3.5694
     4.9405

          k = 0.5291-0.2646 0.7937 (  1514 PWs)   bands (ev):

    -8.2790  -8.1591  -8.1506  -8.1058  -8.0968  -4.0239   0.0819   3.3919
     4.7308

          k = 0.7937-0.2646 1.0582 (  1502 PWs)   bands (ev):

    -8.2856  -8.1490  -8.1428  -8.1181  -8.0910  -4.1374   0.5521   3.5809
     4.1695

          k = 0.6614-0.1323 0.9260 (  1514 PWs)   bands (ev):

    -8.2883  -8.1519  -8.1403  -8.1141  -8.0944  -3.7186   0.0448   2.9340
     3.9835

          k = 0.5291 0.0000 0.7937 (  1511 PWs)   bands (ev):

    -8.2829  -8.1561  -8.1440  -8.1096  -8.0973  -3.8659   0.2199   2.7844
     4.3385

[...]
Ga            0.0000000000        0.0000000000        0.0000000000
As            0.2360172514        0.2360172514        0.2360172514
End final coordinates



     Writing config-only to output data dir ./SCRATCH/gallium arsenide.save/

     Final scf calculation at the relaxed structure.
     The G-vectors are recalculated for the final unit cell
     Results may differ from those at the preceding step.

     G-vector sticks info
     --------------------
     sticks:   dense  smooth     PW     G-vecs:    dense   smooth      PW
     Sum        1237     613    199                28763    10081    1807

     Using Slab Decomposition



     bravais-lattice index     =            2
     lattice parameter (alat)  =      11.2170  a.u.
     unit-cell volume          =     296.8843 (a.u.)^3
     number of atoms/cell      =            2
     number of atomic types    =            2
     number of electrons       =        18.00
     number of Kohn-Sham states=            9
     kinetic-energy cutoff     =      40.0000  Ry
     charge density cutoff     =     320.0000  Ry
     scf convergence threshold =      1.0E-10
     mixing beta               =       0.7000
     number of iterations used =            8  plain     mixing
     press convergence thresh. =      5.0E-01
     Exchange-correlation= LDA
                           (   1   1   0   0   0   0   0)

     celldm(1)=  11.217050  celldm(2)=   0.000000  celldm(3)=   0.000000
     celldm(4)=   0.000000  celldm(5)=   0.000000  celldm(6)=   0.000000

     crystal axes: (cart. coord. in units of alat)
               a(1) = (  -0.472035   0.000000   0.472035 )  
               a(2) = (   0.000000   0.472035   0.472035 )  
               a(3) = (  -0.472035   0.472035   0.000000 )  

     reciprocal axes: (cart. coord. in units 2 pi/alat)
               b(1) = ( -1.059245 -1.059245  1.059245 )  
               b(2) = (  1.059245  1.059245  1.059245 )  
               b(3) = ( -1.059245  1.059245 -1.059245 )  


     PseudoPot. # 1 for Ga read from file:
     /home/paolo/LABQSM/pseudo/Ga.pz-dn-rrkjus_psl.0.2.UPF
     MD5 check sum: 337958ae198bc3768054a43796a587a1
     Pseudo is Ultrasoft + core correction, Zval = 13.0
     Generated using "atomic" code by A. Dal Corso  v.5.0.2 svn rev. 9415
     Using radial grid of 1205 points,  6 beta functions with: 
                l(1) =   0
                l(2) =   0
                l(3) =   1
                l(4) =   1
                l(5) =   2
                l(6) =   2
     Q(r) pseudized with 0 coefficients 


     PseudoPot. # 2 for As read from file:
     /home/paolo/LABQSM/pseudo/As.pz-n-rrkjus_psl.0.2.UPF
     MD5 check sum: f80104272e9b817acfe428865afbdb7e
     Pseudo is Ultrasoft + core correction, Zval =  5.0
     Generated using "atomic" code by A. Dal Corso  v.5.0.2 svn rev. 9415
     Using radial grid of 1209 points,  4 beta functions with: 
                l(1) =   0
                l(2) =   0
                l(3) =   1
                l(4) =   1
     Q(r) pseudized with 0 coefficients 


     atomic species   valence    mass     pseudopotential
        Ga            13.00    69.72300     Ga( 1.00)
        As             5.00    74.92200     As( 1.00)

     24 Sym. Ops. (no inversion) found



   Cartesian axes

     site n.     atom                  positions (alat units)
         1           Ga  tau(   1) = (   0.0000000   0.0000000   0.0000000  )
         2           As  tau(   2) = (   0.2360173   0.2360173   0.2360173  )

     number of k points=    29
                       cart. coord. in units 2pi/alat
        k(    1) = (   0.0000000   0.0000000   0.0000000), wk =   0.0039062
        k(    2) = (  -0.1324056   0.1324056  -0.1324056), wk =   0.0312500
        k(    3) = (  -0.2648112   0.2648112  -0.2648112), wk =   0.0312500
        k(    4) = (  -0.3972167   0.3972167  -0.3972167), wk =   0.0312500
        k(    5) = (   0.5296223  -0.5296223   0.5296223), wk =   0.0156250
        k(    6) = (  -0.0000000   0.2648112  -0.0000000), wk =   0.0234375
        k(    7) = (  -0.1324056   0.3972167  -0.1324056), wk =   0.0937500
        k(    8) = (  -0.2648112   0.5296223  -0.2648112), wk =   0.0937500
        k(    9) = (   0.6620279  -0.3972167   0.6620279), wk =   0.0937500
        k(   10) = (   0.5296223  -0.2648112   0.5296223), wk =   0.0937500
        k(   11) = (   0.3972167  -0.1324056   0.3972167), wk =   0.0937500
        k(   12) = (   0.2648112   0.0000000   0.2648112), wk =   0.0468750
        k(   13) = (  -0.0000000   0.5296223  -0.0000000), wk =   0.0234375
        k(   14) = (  -0.1324056   0.6620279  -0.1324056), wk =   0.0937500
        k(   15) = (   0.7944335  -0.2648112   0.7944335), wk =   0.0937500
        k(   16) = (   0.6620279  -0.1324056   0.6620279), wk =   0.0937500
        k(   17) = (   0.5296223   0.0000000   0.5296223), wk =   0.0468750
        k(   18) = (  -0.0000000   0.7944335  -0.0000000), wk =   0.0234375
        k(   19) = (   0.9268390  -0.1324056   0.9268390), wk =   0.0937500
        k(   20) = (   0.7944335   0.0000000   0.7944335), wk =   0.0468750
        k(   21) = (   0.0000000  -1.0592446   0.0000000), wk =   0.0117188
        k(   22) = (  -0.2648112   0.5296223  -0.0000000), wk =   0.0937500
        k(   23) = (   0.6620279  -0.3972167   0.9268390), wk =   0.1875000
        k(   24) = (   0.5296223  -0.2648112   0.7944335), wk =   0.0937500
        k(   25) = (   0.7944335  -0.2648112   1.0592446), wk =   0.0937500
        k(   26) = (   0.6620279  -0.1324056   0.9268390), wk =   0.1875000
        k(   27) = (   0.5296223   0.0000000   0.7944335), wk =   0.0937500
        k(   28) = (  -0.2648112  -1.0592446   0.0000000), wk =   0.0468750
        k(   29) = (  -0.5296223  -1.0592446   0.0000000), wk =   0.0234375

     Dense  grid:    28763 G-vectors     FFT dimensions: (  45,  45,  45)

     Smooth grid:    10081 G-vectors     FFT dimensions: (  32,  32,  32)

     Estimated max dynamical RAM per process >     119.16 MB

     Initial potential from superposition of free atoms

     starting charge      17.9975, renormalised to      18.0000
     Starting wfcs are   13 randomized atomic wfcs

     total cpu time spent up to now is      177.1 secs

     Self-consistent Calculation

     iteration #  1     ecut=    40.00 Ry     beta= 0.70
     Davidson diagonalization with overlap
     ethr =  1.00E-06,  avg # of iterations =  7.6

     total cpu time spent up to now is      178.6 secs

     total energy              =    -190.70793068 Ry
     estimated scf accuracy    <       0.05875867 Ry

     iteration #  2     ecut=    40.00 Ry     beta= 0.70
     Davidson diagonalization with overlap
     ethr =  3.26E-04,  avg # of iterations =  2.0

     total cpu time spent up to now is      179.5 secs

     total energy              =    -190.70333962 Ry
     estimated scf accuracy    <       0.09546976 Ry

     iteration #  3     ecut=    40.00 Ry     beta= 0.70
     Davidson diagonalization with overlap
     ethr =  3.26E-04,  avg # of iterations =  2.0

     total cpu time spent up to now is      180.2 secs

     total energy              =    -190.72392884 Ry
     estimated scf accuracy    <       0.01360563 Ry

     iteration #  4     ecut=    40.00 Ry     beta= 0.70
     Davidson diagonalization with overlap
     ethr =  7.56E-05,  avg # of iterations =  2.0

     total cpu time spent up to now is      181.0 secs

     total energy              =    -190.72621543 Ry
     estimated scf accuracy    <       0.00012189 Ry

     iteration #  5     ecut=    40.00 Ry     beta= 0.70
     Davidson diagonalization with overlap
     ethr =  6.77E-07,  avg # of iterations =  4.0

     total cpu time spent up to now is      181.9 secs

     total energy              =    -190.72632273 Ry
     estimated scf accuracy    <       0.00006299 Ry

     iteration #  6     ecut=    40.00 Ry     beta= 0.70
     Davidson diagonalization with overlap
     ethr =  3.50E-07,  avg # of iterations =  1.8

     total cpu time spent up to now is      182.6 secs

     total energy              =    -190.72624965 Ry
     estimated scf accuracy    <       0.00012147 Ry

     iteration #  7     ecut=    40.00 Ry     beta= 0.70
     Davidson diagonalization with overlap
     ethr =  3.50E-07,  avg # of iterations =  3.3

     total cpu time spent up to now is      183.4 secs

     total energy              =    -190.72627541 Ry
     estimated scf accuracy    <       0.00000215 Ry

     iteration #  8     ecut=    40.00 Ry     beta= 0.70
     Davidson diagonalization with overlap
     ethr =  1.20E-08,  avg # of iterations =  2.8

     total cpu time spent up to now is      184.2 secs

     total energy              =    -190.72627541 Ry
     estimated scf accuracy    <       0.00000123 Ry

     iteration #  9     ecut=    40.00 Ry     beta= 0.70
     Davidson diagonalization with overlap
     ethr =  6.86E-09,  avg # of iterations =  3.2

     total cpu time spent up to now is      185.0 secs

     total energy              =    -190.72627570 Ry
     estimated scf accuracy    <       0.00000114 Ry

     iteration # 10     ecut=    40.00 Ry     beta= 0.70
     Davidson diagonalization with overlap
     ethr =  6.34E-09,  avg # of iterations =  1.0

     total cpu time spent up to now is      185.7 secs

     total energy              =    -190.72627557 Ry
     estimated scf accuracy    <       0.00000038 Ry

     iteration # 11     ecut=    40.00 Ry     beta= 0.70
     Davidson diagonalization with overlap
     ethr =  2.08E-09,  avg # of iterations =  2.1

     total cpu time spent up to now is      186.4 secs

     total energy              =    -190.72627562 Ry
     estimated scf accuracy    <       0.00000002 Ry

     iteration # 12     ecut=    40.00 Ry     beta= 0.70
     Davidson diagonalization with overlap
     ethr =  9.03E-11,  avg # of iterations =  3.0

     total cpu time spent up to now is      187.2 secs

     total energy              =    -190.72627563 Ry
     estimated scf accuracy    <          2.3E-09 Ry

     iteration # 13     ecut=    40.00 Ry     beta= 0.70
     Davidson diagonalization with overlap
     ethr =  1.30E-11,  avg # of iterations =  3.1

     total cpu time spent up to now is      188.1 secs

     total energy              =    -190.72627563 Ry
     estimated scf accuracy    <          1.9E-09 Ry

     iteration # 14     ecut=    40.00 Ry     beta= 0.70
     Davidson diagonalization with overlap
     ethr =  1.04E-11,  avg # of iterations =  2.0

     total cpu time spent up to now is      188.9 secs

     total energy              =    -190.72627563 Ry
     estimated scf accuracy    <          4.0E-10 Ry

     iteration # 15     ecut=    40.00 Ry     beta= 0.70
     Davidson diagonalization with overlap
     ethr =  2.21E-12,  avg # of iterations =  2.6

     total cpu time spent up to now is      189.6 secs

     End of self-consistent calculation

          k = 0.0000 0.0000 0.0000 (  1243 PWs)   bands (ev):

    -8.1531  -8.1531  -8.1531  -8.0683  -8.0683  -6.1953   6.7870   6.7870
     6.7870

          k =-0.1324 0.1324-0.1324 (  1279 PWs)   bands (ev):

    -8.1684  -8.1496  -8.1496  -8.0687  -8.0687  -6.0063   4.7615   6.5376
     6.5376

          k =-0.2648 0.2648-0.2648 (  1278 PWs)   bands (ev):

    -8.2004  -8.1413  -8.1413  -8.0680  -8.0680  -5.4779   2.5232   6.0765
     6.0765

          k =-0.3972 0.3972-0.3972 (  1272 PWs)   bands (ev):

    -8.2286  -8.1347  -8.1347  -8.0653  -8.0653  -4.7658   0.7176   5.7243
     5.7243

          k = 0.5296-0.5296 0.5296 (  1260 PWs)   bands (ev):

    -8.2393  -8.1325  -8.1325  -8.0635  -8.0635  -4.3550  -0.0669   5.5982
     5.5982

          k =-0.0000 0.2648-0.0000 (  1287 PWs)   bands (ev):

    -8.1766  -8.1461  -8.1461  -8.0719  -8.0663  -5.9435   4.7435   6.0925
     6.0925

          k =-0.1324 0.3972-0.1324 (  1282 PWs)   bands (ev):

    -8.2020  -8.1389  -8.1374  -8.0743  -8.0643  -5.5269   3.0564   5.5563
     5.5836

          k =-0.2648 0.5296-0.2648 (  1280 PWs)   bands (ev):

    -8.2278  -8.1332  -8.1298  -8.0732  -8.0623  -4.8588   1.2424   4.9330
     5.2832

          k = 0.6620-0.3972 0.6620 (  1260 PWs)   bands (ev):

    -8.2414  -8.1304  -8.1272  -8.0686  -8.0625  -4.2795   0.0996   4.4878
     5.2760

          k = 0.5296-0.2648 0.5296 (  1272 PWs)   bands (ev):

    -8.2375  -8.1307  -8.1295  -8.0667  -8.0655  -4.4257   0.3655   4.3438
     5.5545

          k = 0.3972-0.1324 0.3972 (  1277 PWs)   bands (ev):

    -8.2174  -8.1363  -8.1342  -8.0707  -8.0655  -5.1004   1.8094   4.5773
     6.0342

          k = 0.2648 0.0000 0.2648 (  1275 PWs)   bands (ev):

    -8.1892  -8.1450  -8.1415  -8.0710  -8.0667  -5.7034   3.5622   5.3463
     6.4954

          k =-0.0000 0.5296-0.0000 (  1283 PWs)   bands (ev):

    -8.2224  -8.1274  -8.1274  -8.0813  -8.0610  -5.2354   2.5989   5.0186
     5.0186

          k =-0.1324 0.6620-0.1324 (  1273 PWs)   bands (ev):

    -8.2420  -8.1205  -8.1184  -8.0840  -8.0586  -4.6677   1.3854   4.2569
     4.6775

          k = 0.7944-0.2648 0.7944 (  1264 PWs)   bands (ev):

    -8.2515  -8.1208  -8.1149  -8.0802  -8.0597  -4.0577   0.3351   3.4027
     4.6604

          k = 0.6620-0.1324 0.6620 (  1268 PWs)   bands (ev):

    -8.2487  -8.1244  -8.1175  -8.0733  -8.0650  -3.9577   0.1989   2.9711
     4.9687

          k = 0.5296 0.0000 0.5296 (  1278 PWs)   bands (ev):

    -8.2359  -8.1286  -8.1260  -8.0701  -8.0678  -4.4916   0.9882   3.2639
     5.5125

          k =-0.0000 0.7944-0.0000 (  1274 PWs)   bands (ev):

    -8.2594  -8.1080  -8.1080  -8.0919  -8.0554  -4.2352   0.7217   4.2638
     4.2638

          k = 0.9268-0.1324 0.9268 (  1269 PWs)   bands (ev):

    -8.2661  -8.1072  -8.1038  -8.0912  -8.0554  -3.7524   0.0565   3.5318
     4.1757

          k = 0.7944 0.0000 0.7944 (  1260 PWs)   bands (ev):

    -8.2603  -8.1150  -8.1071  -8.0837  -8.0601  -3.6196  -0.0350   2.7481
     4.4338

          k = 0.0000-1.0592 0.0000 (  1266 PWs)   bands (ev):

    -8.2729  -8.0996  -8.0996  -8.0968  -8.0532  -3.5848  -0.2277   3.9993
     3.9993

          k =-0.2648 0.5296-0.0000 (  1275 PWs)   bands (ev):

    -8.2241  -8.1312  -8.1282  -8.0772  -8.0623  -5.0329   1.9832   4.2707
     5.4252

          k = 0.6620-0.3972 0.9268 (  1262 PWs)   bands (ev):

    -8.2414  -8.1274  -8.1208  -8.0755  -8.0623  -4.3724   0.7289   3.5939
     4.9689

          k = 0.5296-0.2648 0.7944 (  1264 PWs)   bands (ev):

    -8.2478  -8.1269  -8.1180  -8.0728  -8.0636  -3.9987   0.1037   3.4164
     4.7582

          k = 0.7944-0.2648 1.0592 (  1256 PWs)   bands (ev):

    -8.2547  -8.1164  -8.1101  -8.0853  -8.0580  -4.1134   0.5783   3.6046
     4.1949

          k = 0.6620-0.1324 0.9268 (  1263 PWs)   bands (ev):

    -8.2572  -8.1194  -8.1075  -8.0813  -8.0613  -3.6917   0.0682   2.9553
     4.0082

          k = 0.5296 0.0000 0.7944 (  1258 PWs)   bands (ev):

    -8.2517  -8.1237  -8.1113  -8.0768  -8.0642  -3.8400   0.2441   2.8051
     4.3646

          k =-0.2648-1.0592 0.0000 (  1274 PWs)   bands (ev):

    -8.2663  -8.1097  -8.1034  -8.0885  -8.0570  -3.5522  -0.1374   3.5070
     3.5958

          k =-0.5296-1.0592 0.0000 (  1256 PWs)   bands (ev):

    -8.2584  -8.1201  -8.1045  -8.0805  -8.0628  -3.5188  -0.0347   3.0945
     3.2759

     highest occupied level (ev):     6.7870

!    total energy              =    -190.72627563 Ry
     estimated scf accuracy    <          2.7E-12 Ry

     The total energy is the sum of the following terms:
     one-electron contribution =    -110.90922173 Ry
     hartree contribution      =      71.15146134 Ry
     xc contribution           =     -57.13036761 Ry
     ewald contribution        =     -93.83814764 Ry

     convergence has been achieved in  15 iterations

     Forces acting on atoms (cartesian axes, Ry/au):

     atom    1 type  1   force =     0.00000000    0.00000000    0.00000000
     atom    2 type  2   force =    -0.00000000   -0.00000000   -0.00000000
     The non-local contrib.  to forces
     atom    1 type  1   force =    -0.00000000    0.00000000    0.00000000
     atom    2 type  2   force =    -0.00000000    0.00000000   -0.00000000
     The ionic contribution  to forces
     atom    1 type  1   force =    -0.00000000   -0.00000000    0.00000000
     atom    2 type  2   force =     0.00000000    0.00000000    0.00000000
     The local contribution  to forces
     atom    1 type  1   force =     0.00000000   -0.00000000   -0.00000000
     atom    2 type  2   force =    -0.00000000    0.00000000    0.00000000
     The core correction contribution to forces
     atom    1 type  1   force =     0.00000000   -0.00000000   -0.00000000
     atom    2 type  2   force =    -0.00000000   -0.00000000   -0.00000000
     The Hubbard contrib.    to forces
     atom    1 type  1   force =     0.00000000    0.00000000    0.00000000
     atom    2 type  2   force =     0.00000000    0.00000000    0.00000000
     The SCF correction term to forces
     atom    1 type  1   force =    -0.00000000   -0.00000000   -0.00000000
     atom    2 type  2   force =     0.00000000   -0.00000000   -0.00000000

     Total force =     0.000000     Total SCF correction =     0.000000


     Computing stress (Cartesian axis) and pressure

          total   stress  (Ry/bohr**3)                   (kbar)     P=       -1.24
  -0.00000845   0.00000000   0.00000000           -1.24        0.00        0.00
   0.00000000  -0.00000845  -0.00000000            0.00       -1.24       -0.00
   0.00000000   0.00000000  -0.00000845            0.00        0.00       -1.24


     Writing all to output data dir ./SCRATCH/gallium arsenide.save/

     init_run     :      4.72s CPU      4.94s WALL (       2 calls)
     electrons    :    112.47s CPU    139.73s WALL (       7 calls)
     update_pot   :     10.34s CPU     10.33s WALL (       5 calls)
     forces       :      7.94s CPU      8.62s WALL (       7 calls)
     stress       :     24.48s CPU     29.87s WALL (       7 calls)

     Called by init_run:
     wfcinit      :      0.53s CPU      0.54s WALL (       2 calls)
     potinit      :      1.09s CPU      1.10s WALL (       2 calls)
     hinit0       :      2.98s CPU      2.98s WALL (       2 calls)

     Called by electrons:
     c_bands      :     80.12s CPU     81.85s WALL (     157 calls)
     sum_band     :     22.50s CPU     35.05s WALL (     157 calls)
     v_of_rho     :      0.77s CPU      0.67s WALL (     163 calls)
     newd         :      8.67s CPU     22.23s WALL (     163 calls)
     mix_rho      :      0.48s CPU      0.53s WALL (     157 calls)

     Called by c_bands:
     init_us_2    :      3.05s CPU      2.89s WALL (    9570 calls)
     init_us_2:cp :      3.05s CPU      2.85s WALL (    9570 calls)
     cegterg      :     76.06s CPU     76.74s WALL (    4553 calls)

     Called by *egterg:
     cdiaghg      :      1.02s CPU      0.83s WALL (   14553 calls)
     h_psi        :     61.73s CPU     61.93s WALL (   14785 calls)
     s_psi        :      3.52s CPU      3.36s WALL (   14785 calls)
     g_psi        :      0.23s CPU      0.31s WALL (   10174 calls)

     Called by h_psi:
     h_psi:calbec :      4.28s CPU      4.54s WALL (   14785 calls)
     vloc_psi     :     53.72s CPU     53.68s WALL (   14785 calls)
     add_vuspsi   :      3.53s CPU      3.39s WALL (   14785 calls)

     General routines
     calbec       :      6.28s CPU      6.46s WALL (   20353 calls)
     fft          :      1.19s CPU      1.13s WALL (    1026 calls)
     ffts         :      0.09s CPU      0.11s WALL (     320 calls)
     fftw         :     54.59s CPU     54.39s WALL (  266467 calls)
     interpolate  :      0.23s CPU      0.26s WALL (     163 calls)


     PWSCF        :   2m40.34s CPU   3m14.36s WALL


   This run was terminated on:  13:15:34  11Jun2024            

=------------------------------------------------------------------------------=
   JOB DONE.
=------------------------------------------------------------------------------=
