
     Program PWSCF v.7.2 starts on  9Jun2024 at 11:43:39 

     This program is part of the open-source Quantum ESPRESSO suite
     for quantum simulation of materials; please cite
         "P. Giannozzi et al., J. Phys.:Condens. Matter 21 395502 (2009);
         "P. Giannozzi et al., J. Phys.:Condens. Matter 29 465901 (2017);
         "P. Giannozzi et al., J. Chem. Phys. 152 154105 (2020);
          URL http://www.quantum-espresso.org", 
     in publications or presentations arising from this work. More details at
     http://www.quantum-espresso.org/quote

     Serial version
     8526 MiB available memory on the printing compute node when the environment starts

     Waiting for input...
     Reading input from standard input

     Current dimensions of program PWSCF are:
     Max number of different atomic species (ntypx) = 10
     Max number of k-points (npk) =  40000
     Max angular momentum in pseudopotentials (lmaxx) =  4

     Atomic positions and unit cell read from directory:
     ./SCRATCH/silicon.save/



     G-vector sticks info
     --------------------
     sticks:   dense  smooth     PW     G-vecs:    dense   smooth      PW
     Sum         889     889    253                17453    17453    2741

     Using Slab Decomposition



     bravais-lattice index     =            2
     lattice parameter (alat)  =      10.3512  a.u.
     unit-cell volume          =     277.2753 (a.u.)^3
     number of atoms/cell      =            2
     number of atomic types    =            1
     number of electrons       =         8.00
     number of Kohn-Sham states=           10
     kinetic-energy cutoff     =      60.0000  Ry
     charge density cutoff     =     240.0000  Ry
     Exchange-correlation= PBE
                           (   1   4   3   4   0   0   0)

     celldm(1)=  10.351193  celldm(2)=   0.000000  celldm(3)=   0.000000
     celldm(4)=   0.000000  celldm(5)=   0.000000  celldm(6)=   0.000000

     crystal axes: (cart. coord. in units of alat)
               a(1) = (  -0.500000   0.000000   0.500000 )  
               a(2) = (   0.000000   0.500000   0.500000 )  
               a(3) = (  -0.500000   0.500000   0.000000 )  

     reciprocal axes: (cart. coord. in units 2 pi/alat)
               b(1) = ( -1.000000 -1.000000  1.000000 )  
               b(2) = (  1.000000  1.000000  1.000000 )  
               b(3) = ( -1.000000  1.000000 -1.000000 )  


     PseudoPot. # 1 for Si read from file:
     /home/paolo/project_labqsm/pseudopotentials/Si_ONCV_PBE-1.2.upf
     MD5 check sum: 7f029a58b69e3aa87b46a36c608bf45e
     Pseudo is Norm-conserving, Zval =  4.0
     Generated using ONCVPSP code by D. R. Hamann
     Using radial grid of  602 points,  4 beta functions with: 
                l(1) =   0
                l(2) =   0
                l(3) =   1
                l(4) =   1

     atomic species   valence    mass     pseudopotential
        Si             4.00    28.08500     Si( 1.00)

     48 Sym. Ops., with inversion, found (24 have fractional translation)


                                    s                        frac. trans.

      isym =  1     identity                                     

 cryst.   s( 1) = (     1          0          0      )
                  (     0          1          0      )
                  (     0          0          1      )

 cart.    s( 1) = (  1.0000000  0.0000000  0.0000000 )
                  (  0.0000000  1.0000000  0.0000000 )
                  (  0.0000000  0.0000000  1.0000000 )


      isym =  2     180 deg rotation - cart. axis [0,0,1]        

 cryst.   s( 2) = (     0          1         -1      )
                  (     1          0         -1      )
                  (     0          0         -1      )

 cart.    s( 2) = ( -1.0000000  0.0000000  0.0000000 )
                  (  0.0000000 -1.0000000  0.0000000 )
                  (  0.0000000  0.0000000  1.0000000 )


      isym =  3     180 deg rotation - cart. axis [0,1,0]        

 cryst.   s( 3) = (    -1          0          0      )
                  (    -1          0          1      )
                  (    -1          1          0      )

 cart.    s( 3) = ( -1.0000000  0.0000000  0.0000000 )
                  (  0.0000000  1.0000000  0.0000000 )
                  (  0.0000000  0.0000000 -1.0000000 )


      isym =  4     180 deg rotation - cart. axis [1,0,0]        

 cryst.   s( 4) = (     0         -1          1      )
                  (     0         -1          0      )
                  (     1         -1          0      )

 cart.    s( 4) = (  1.0000000  0.0000000  0.0000000 )
                  (  0.0000000 -1.0000000  0.0000000 )
                  (  0.0000000  0.0000000 -1.0000000 )


      isym =  5     180 deg rotation - cart. axis [1,1,0]        

 cryst.   s( 5) = (     0         -1          0      )    f =(  0.2500000 )
                  (    -1          0          0      )       (  0.2500000 )
                  (     0          0         -1      )       (  0.2500000 )

 cart.    s( 5) = (  0.0000000  1.0000000  0.0000000 )    f =( -0.2500000 )
                  (  1.0000000  0.0000000  0.0000000 )       (  0.2500000 )
                  (  0.0000000  0.0000000 -1.0000000 )       (  0.2500000 )


      isym =  6     180 deg rotation - cart. axis [1,-1,0]       

 cryst.   s( 6) = (    -1          0          1      )    f =(  0.2500000 )
                  (     0         -1          1      )       (  0.2500000 )
                  (     0          0          1      )       (  0.2500000 )

 cart.    s( 6) = (  0.0000000 -1.0000000  0.0000000 )    f =( -0.2500000 )
                  ( -1.0000000  0.0000000  0.0000000 )       (  0.2500000 )
                  (  0.0000000  0.0000000 -1.0000000 )       (  0.2500000 )


      isym =  7      90 deg rotation - cart. axis [0,0,-1]       

 cryst.   s( 7) = (     0          1          0      )    f =(  0.2500000 )
                  (     0          1         -1      )       (  0.2500000 )
                  (    -1          1          0      )       (  0.2500000 )

 cart.    s( 7) = (  0.0000000  1.0000000  0.0000000 )    f =( -0.2500000 )
                  ( -1.0000000  0.0000000  0.0000000 )       (  0.2500000 )
                  (  0.0000000  0.0000000  1.0000000 )       (  0.2500000 )


      isym =  8      90 deg rotation - cart. axis [0,0,1]        

 cryst.   s( 8) = (     1          0         -1      )    f =(  0.2500000 )
                  (     1          0          0      )       (  0.2500000 )
                  (     1         -1          0      )       (  0.2500000 )

 cart.    s( 8) = (  0.0000000 -1.0000000  0.0000000 )    f =( -0.2500000 )
                  (  1.0000000  0.0000000  0.0000000 )       (  0.2500000 )
                  (  0.0000000  0.0000000  1.0000000 )       (  0.2500000 )


      isym =  9     180 deg rotation - cart. axis [1,0,1]        

 cryst.   s( 9) = (    -1          0          0      )    f =(  0.2500000 )
                  (     0          0         -1      )       (  0.2500000 )
                  (     0         -1          0      )       (  0.2500000 )

 cart.    s( 9) = (  0.0000000  0.0000000  1.0000000 )    f =( -0.2500000 )
                  (  0.0000000 -1.0000000  0.0000000 )       (  0.2500000 )
                  (  1.0000000  0.0000000  0.0000000 )       (  0.2500000 )


      isym = 10     180 deg rotation - cart. axis [-1,0,1]       

 cryst.   s(10) = (     1          0          0      )    f =(  0.2500000 )
                  (     1         -1          0      )       (  0.2500000 )
                  (     1          0         -1      )       (  0.2500000 )

 cart.    s(10) = (  0.0000000  0.0000000 -1.0000000 )    f =( -0.2500000 )
                  (  0.0000000 -1.0000000  0.0000000 )       (  0.2500000 )
                  ( -1.0000000  0.0000000  0.0000000 )       (  0.2500000 )


      isym = 11      90 deg rotation - cart. axis [0,1,0]        

 cryst.   s(11) = (     0          1         -1      )    f =(  0.2500000 )
                  (    -1          1          0      )       (  0.2500000 )
                  (     0          1          0      )       (  0.2500000 )

 cart.    s(11) = (  0.0000000  0.0000000  1.0000000 )    f =( -0.2500000 )
                  (  0.0000000  1.0000000  0.0000000 )       (  0.2500000 )
                  ( -1.0000000  0.0000000  0.0000000 )       (  0.2500000 )


      isym = 12      90 deg rotation - cart. axis [0,-1,0]       

 cryst.   s(12) = (     0         -1          1      )    f =(  0.2500000 )
                  (     0          0          1      )       (  0.2500000 )
                  (    -1          0          1      )       (  0.2500000 )

 cart.    s(12) = (  0.0000000  0.0000000 -1.0000000 )    f =( -0.2500000 )
                  (  0.0000000  1.0000000  0.0000000 )       (  0.2500000 )
                  (  1.0000000  0.0000000  0.0000000 )       (  0.2500000 )


      isym = 13     180 deg rotation - cart. axis [0,1,1]        

 cryst.   s(13) = (    -1          1          0      )    f =(  0.2500000 )
                  (     0          1          0      )       (  0.2500000 )
                  (     0          1         -1      )       (  0.2500000 )

 cart.    s(13) = ( -1.0000000  0.0000000  0.0000000 )    f =( -0.2500000 )
                  (  0.0000000  0.0000000  1.0000000 )       (  0.2500000 )
                  (  0.0000000  1.0000000  0.0000000 )       (  0.2500000 )


      isym = 14     180 deg rotation - cart. axis [0,1,-1]       

 cryst.   s(14) = (     0          0         -1      )    f =(  0.2500000 )
                  (     0         -1          0      )       (  0.2500000 )
                  (    -1          0          0      )       (  0.2500000 )

 cart.    s(14) = ( -1.0000000  0.0000000  0.0000000 )    f =( -0.2500000 )
                  (  0.0000000  0.0000000 -1.0000000 )       (  0.2500000 )
                  (  0.0000000 -1.0000000  0.0000000 )       (  0.2500000 )


      isym = 15      90 deg rotation - cart. axis [-1,0,0]       

 cryst.   s(15) = (     0          0          1      )    f =(  0.2500000 )
                  (    -1          0          1      )       (  0.2500000 )
                  (     0         -1          1      )       (  0.2500000 )

 cart.    s(15) = (  1.0000000  0.0000000  0.0000000 )    f =( -0.2500000 )
                  (  0.0000000  0.0000000  1.0000000 )       (  0.2500000 )
                  (  0.0000000 -1.0000000  0.0000000 )       (  0.2500000 )


      isym = 16      90 deg rotation - cart. axis [1,0,0]        

 cryst.   s(16) = (     1         -1          0      )    f =(  0.2500000 )
                  (     1          0         -1      )       (  0.2500000 )
                  (     1          0          0      )       (  0.2500000 )

 cart.    s(16) = (  1.0000000  0.0000000  0.0000000 )    f =( -0.2500000 )
                  (  0.0000000  0.0000000 -1.0000000 )       (  0.2500000 )
                  (  0.0000000  1.0000000  0.0000000 )       (  0.2500000 )


      isym = 17     120 deg rotation - cart. axis [-1,-1,-1]     

 cryst.   s(17) = (    -1          0          1      )
                  (    -1          1          0      )
                  (    -1          0          0      )

 cart.    s(17) = (  0.0000000  1.0000000  0.0000000 )
                  (  0.0000000  0.0000000  1.0000000 )
                  (  1.0000000  0.0000000  0.0000000 )


      isym = 18     120 deg rotation - cart. axis [-1,1,1]       

 cryst.   s(18) = (     0          1          0      )
                  (     0          0          1      )
                  (     1          0          0      )

 cart.    s(18) = (  0.0000000 -1.0000000  0.0000000 )
                  (  0.0000000  0.0000000  1.0000000 )
                  ( -1.0000000  0.0000000  0.0000000 )


      isym = 19     120 deg rotation - cart. axis [1,1,-1]       

 cryst.   s(19) = (     1          0         -1      )
                  (     0          0         -1      )
                  (     0          1         -1      )

 cart.    s(19) = (  0.0000000  1.0000000  0.0000000 )
                  (  0.0000000  0.0000000 -1.0000000 )
                  ( -1.0000000  0.0000000  0.0000000 )


      isym = 20     120 deg rotation - cart. axis [1,-1,1]       

 cryst.   s(20) = (     0         -1          0      )
                  (     1         -1          0      )
                  (     0         -1          1      )

 cart.    s(20) = (  0.0000000 -1.0000000  0.0000000 )
                  (  0.0000000  0.0000000 -1.0000000 )
                  (  1.0000000  0.0000000  0.0000000 )


      isym = 21     120 deg rotation - cart. axis [1,1,1]        

 cryst.   s(21) = (     0          0         -1      )
                  (     0          1         -1      )
                  (     1          0         -1      )

 cart.    s(21) = (  0.0000000  0.0000000  1.0000000 )
                  (  1.0000000  0.0000000  0.0000000 )
                  (  0.0000000  1.0000000  0.0000000 )


      isym = 22     120 deg rotation - cart. axis [-1,1,-1]      

 cryst.   s(22) = (    -1          1          0      )
                  (    -1          0          0      )
                  (    -1          0          1      )

 cart.    s(22) = (  0.0000000  0.0000000  1.0000000 )
                  ( -1.0000000  0.0000000  0.0000000 )
                  (  0.0000000 -1.0000000  0.0000000 )


      isym = 23     120 deg rotation - cart. axis [1,-1,-1]      

 cryst.   s(23) = (     0          0          1      )
                  (     1          0          0      )
                  (     0          1          0      )

 cart.    s(23) = (  0.0000000  0.0000000 -1.0000000 )
                  ( -1.0000000  0.0000000  0.0000000 )
                  (  0.0000000  1.0000000  0.0000000 )


      isym = 24     120 deg rotation - cart. axis [-1,-1,1]      

 cryst.   s(24) = (     1         -1          0      )
                  (     0         -1          1      )
                  (     0         -1          0      )

 cart.    s(24) = (  0.0000000  0.0000000 -1.0000000 )
                  (  1.0000000  0.0000000  0.0000000 )
                  (  0.0000000 -1.0000000  0.0000000 )


      isym = 25     inversion                                    

 cryst.   s(25) = (    -1          0          0      )    f =(  0.2500000 )
                  (     0         -1          0      )       (  0.2500000 )
                  (     0          0         -1      )       (  0.2500000 )

 cart.    s(25) = ( -1.0000000  0.0000000  0.0000000 )    f =( -0.2500000 )
                  (  0.0000000 -1.0000000  0.0000000 )       (  0.2500000 )
                  (  0.0000000  0.0000000 -1.0000000 )       (  0.2500000 )


      isym = 26     inv. 180 deg rotation - cart. axis [0,0,1]   

 cryst.   s(26) = (     0         -1          1      )    f =(  0.2500000 )
                  (    -1          0          1      )       (  0.2500000 )
                  (     0          0          1      )       (  0.2500000 )

 cart.    s(26) = (  1.0000000  0.0000000  0.0000000 )    f =( -0.2500000 )
                  (  0.0000000  1.0000000  0.0000000 )       (  0.2500000 )
                  (  0.0000000  0.0000000 -1.0000000 )       (  0.2500000 )


      isym = 27     inv. 180 deg rotation - cart. axis [0,1,0]   

 cryst.   s(27) = (     1          0          0      )    f =(  0.2500000 )
                  (     1          0         -1      )       (  0.2500000 )
                  (     1         -1          0      )       (  0.2500000 )

 cart.    s(27) = (  1.0000000  0.0000000  0.0000000 )    f =( -0.2500000 )
                  (  0.0000000 -1.0000000  0.0000000 )       (  0.2500000 )
                  (  0.0000000  0.0000000  1.0000000 )       (  0.2500000 )


      isym = 28     inv. 180 deg rotation - cart. axis [1,0,0]   

 cryst.   s(28) = (     0          1         -1      )    f =(  0.2500000 )
                  (     0          1          0      )       (  0.2500000 )
                  (    -1          1          0      )       (  0.2500000 )

 cart.    s(28) = ( -1.0000000  0.0000000  0.0000000 )    f =( -0.2500000 )
                  (  0.0000000  1.0000000  0.0000000 )       (  0.2500000 )
                  (  0.0000000  0.0000000  1.0000000 )       (  0.2500000 )


      isym = 29     inv. 180 deg rotation - cart. axis [1,1,0]   

 cryst.   s(29) = (     0          1          0      )
                  (     1          0          0      )
                  (     0          0          1      )

 cart.    s(29) = (  0.0000000 -1.0000000  0.0000000 )
                  ( -1.0000000  0.0000000  0.0000000 )
                  (  0.0000000  0.0000000  1.0000000 )


      isym = 30     inv. 180 deg rotation - cart. axis [1,-1,0]  

 cryst.   s(30) = (     1          0         -1      )
                  (     0          1         -1      )
                  (     0          0         -1      )

 cart.    s(30) = (  0.0000000  1.0000000  0.0000000 )
                  (  1.0000000  0.0000000  0.0000000 )
                  (  0.0000000  0.0000000  1.0000000 )


      isym = 31     inv.  90 deg rotation - cart. axis [0,0,-1]  

 cryst.   s(31) = (     0         -1          0      )
                  (     0         -1          1      )
                  (     1         -1          0      )

 cart.    s(31) = (  0.0000000 -1.0000000  0.0000000 )
                  (  1.0000000  0.0000000  0.0000000 )
                  (  0.0000000  0.0000000 -1.0000000 )


      isym = 32     inv.  90 deg rotation - cart. axis [0,0,1]   

 cryst.   s(32) = (    -1          0          1      )
                  (    -1          0          0      )
                  (    -1          1          0      )

 cart.    s(32) = (  0.0000000  1.0000000  0.0000000 )
                  ( -1.0000000  0.0000000  0.0000000 )
                  (  0.0000000  0.0000000 -1.0000000 )


      isym = 33     inv. 180 deg rotation - cart. axis [1,0,1]   

 cryst.   s(33) = (     1          0          0      )
                  (     0          0          1      )
                  (     0          1          0      )

 cart.    s(33) = (  0.0000000  0.0000000 -1.0000000 )
                  (  0.0000000  1.0000000  0.0000000 )
                  ( -1.0000000  0.0000000  0.0000000 )


      isym = 34     inv. 180 deg rotation - cart. axis [-1,0,1]  

 cryst.   s(34) = (    -1          0          0      )
                  (    -1          1          0      )
                  (    -1          0          1      )

 cart.    s(34) = (  0.0000000  0.0000000  1.0000000 )
                  (  0.0000000  1.0000000  0.0000000 )
                  (  1.0000000  0.0000000  0.0000000 )


      isym = 35     inv.  90 deg rotation - cart. axis [0,1,0]   

 cryst.   s(35) = (     0         -1          1      )
                  (     1         -1          0      )
                  (     0         -1          0      )

 cart.    s(35) = (  0.0000000  0.0000000 -1.0000000 )
                  (  0.0000000 -1.0000000  0.0000000 )
                  (  1.0000000  0.0000000  0.0000000 )


      isym = 36     inv.  90 deg rotation - cart. axis [0,-1,0]  

 cryst.   s(36) = (     0          1         -1      )
                  (     0          0         -1      )
                  (     1          0         -1      )

 cart.    s(36) = (  0.0000000  0.0000000  1.0000000 )
                  (  0.0000000 -1.0000000  0.0000000 )
                  ( -1.0000000  0.0000000  0.0000000 )


      isym = 37     inv. 180 deg rotation - cart. axis [0,1,1]   

 cryst.   s(37) = (     1         -1          0      )
                  (     0         -1          0      )
                  (     0         -1          1      )

 cart.    s(37) = (  1.0000000  0.0000000  0.0000000 )
                  (  0.0000000  0.0000000 -1.0000000 )
                  (  0.0000000 -1.0000000  0.0000000 )


      isym = 38     inv. 180 deg rotation - cart. axis [0,1,-1]  

 cryst.   s(38) = (     0          0          1      )
                  (     0          1          0      )
                  (     1          0          0      )

 cart.    s(38) = (  1.0000000  0.0000000  0.0000000 )
                  (  0.0000000  0.0000000  1.0000000 )
                  (  0.0000000  1.0000000  0.0000000 )


      isym = 39     inv.  90 deg rotation - cart. axis [-1,0,0]  

 cryst.   s(39) = (     0          0         -1      )
                  (     1          0         -1      )
                  (     0          1         -1      )

 cart.    s(39) = ( -1.0000000  0.0000000  0.0000000 )
                  (  0.0000000  0.0000000 -1.0000000 )
                  (  0.0000000  1.0000000  0.0000000 )


      isym = 40     inv.  90 deg rotation - cart. axis [1,0,0]   

 cryst.   s(40) = (    -1          1          0      )
                  (    -1          0          1      )
                  (    -1          0          0      )

 cart.    s(40) = ( -1.0000000  0.0000000  0.0000000 )
                  (  0.0000000  0.0000000  1.0000000 )
                  (  0.0000000 -1.0000000  0.0000000 )


      isym = 41     inv. 120 deg rotation - cart. axis [-1,-1,-1]

 cryst.   s(41) = (     1          0         -1      )    f =(  0.2500000 )
                  (     1         -1          0      )       (  0.2500000 )
                  (     1          0          0      )       (  0.2500000 )

 cart.    s(41) = (  0.0000000 -1.0000000  0.0000000 )    f =( -0.2500000 )
                  (  0.0000000  0.0000000 -1.0000000 )       (  0.2500000 )
                  ( -1.0000000  0.0000000  0.0000000 )       (  0.2500000 )


      isym = 42     inv. 120 deg rotation - cart. axis [-1,1,1]  

 cryst.   s(42) = (     0         -1          0      )    f =(  0.2500000 )
                  (     0          0         -1      )       (  0.2500000 )
                  (    -1          0          0      )       (  0.2500000 )

 cart.    s(42) = (  0.0000000  1.0000000  0.0000000 )    f =( -0.2500000 )
                  (  0.0000000  0.0000000 -1.0000000 )       (  0.2500000 )
                  (  1.0000000  0.0000000  0.0000000 )       (  0.2500000 )


      isym = 43     inv. 120 deg rotation - cart. axis [1,1,-1]  

 cryst.   s(43) = (    -1          0          1      )    f =(  0.2500000 )
                  (     0          0          1      )       (  0.2500000 )
                  (     0         -1          1      )       (  0.2500000 )

 cart.    s(43) = (  0.0000000 -1.0000000  0.0000000 )    f =( -0.2500000 )
                  (  0.0000000  0.0000000  1.0000000 )       (  0.2500000 )
                  (  1.0000000  0.0000000  0.0000000 )       (  0.2500000 )


      isym = 44     inv. 120 deg rotation - cart. axis [1,-1,1]  

 cryst.   s(44) = (     0          1          0      )    f =(  0.2500000 )
                  (    -1          1          0      )       (  0.2500000 )
                  (     0          1         -1      )       (  0.2500000 )

 cart.    s(44) = (  0.0000000  1.0000000  0.0000000 )    f =( -0.2500000 )
                  (  0.0000000  0.0000000  1.0000000 )       (  0.2500000 )
                  ( -1.0000000  0.0000000  0.0000000 )       (  0.2500000 )


      isym = 45     inv. 120 deg rotation - cart. axis [1,1,1]   

 cryst.   s(45) = (     0          0          1      )    f =(  0.2500000 )
                  (     0         -1          1      )       (  0.2500000 )
                  (    -1          0          1      )       (  0.2500000 )

 cart.    s(45) = (  0.0000000  0.0000000 -1.0000000 )    f =( -0.2500000 )
                  ( -1.0000000  0.0000000  0.0000000 )       (  0.2500000 )
                  (  0.0000000 -1.0000000  0.0000000 )       (  0.2500000 )


      isym = 46     inv. 120 deg rotation - cart. axis [-1,1,-1] 

 cryst.   s(46) = (     1         -1          0      )    f =(  0.2500000 )
                  (     1          0          0      )       (  0.2500000 )
                  (     1          0         -1      )       (  0.2500000 )

 cart.    s(46) = (  0.0000000  0.0000000 -1.0000000 )    f =( -0.2500000 )
                  (  1.0000000  0.0000000  0.0000000 )       (  0.2500000 )
                  (  0.0000000  1.0000000  0.0000000 )       (  0.2500000 )


      isym = 47     inv. 120 deg rotation - cart. axis [1,-1,-1] 

 cryst.   s(47) = (     0          0         -1      )    f =(  0.2500000 )
                  (    -1          0          0      )       (  0.2500000 )
                  (     0         -1          0      )       (  0.2500000 )

 cart.    s(47) = (  0.0000000  0.0000000  1.0000000 )    f =( -0.2500000 )
                  (  1.0000000  0.0000000  0.0000000 )       (  0.2500000 )
                  (  0.0000000 -1.0000000  0.0000000 )       (  0.2500000 )


      isym = 48     inv. 120 deg rotation - cart. axis [-1,-1,1] 

 cryst.   s(48) = (    -1          1          0      )    f =(  0.2500000 )
                  (     0          1         -1      )       (  0.2500000 )
                  (     0          1          0      )       (  0.2500000 )

 cart.    s(48) = (  0.0000000  0.0000000  1.0000000 )    f =( -0.2500000 )
                  ( -1.0000000  0.0000000  0.0000000 )       (  0.2500000 )
                  (  0.0000000  1.0000000  0.0000000 )       (  0.2500000 )


     point group O_h (m-3m) 
     there are 10 classes
     the character table:

       E     8C3   3C2   6C4   6C2'  i     8S6   3s_h  6S4   6s_d 
A_1g   1.00  1.00  1.00  1.00  1.00  1.00  1.00  1.00  1.00  1.00
A_2g   1.00  1.00  1.00 -1.00 -1.00  1.00  1.00  1.00 -1.00 -1.00
E_g    2.00 -1.00  2.00  0.00  0.00  2.00 -1.00  2.00  0.00  0.00
T_1g   3.00  0.00 -1.00  1.00 -1.00  3.00  0.00 -1.00  1.00 -1.00
T_2g   3.00  0.00 -1.00 -1.00  1.00  3.00  0.00 -1.00 -1.00  1.00
A_1u   1.00  1.00  1.00  1.00  1.00 -1.00 -1.00 -1.00 -1.00 -1.00
A_2u   1.00  1.00  1.00 -1.00 -1.00 -1.00 -1.00 -1.00  1.00  1.00
E_u    2.00 -1.00  2.00  0.00  0.00 -2.00  1.00 -2.00  0.00  0.00
T_1u   3.00  0.00 -1.00  1.00 -1.00 -3.00  0.00  1.00 -1.00  1.00
T_2u   3.00  0.00 -1.00 -1.00  1.00 -3.00  0.00  1.00  1.00 -1.00

     the symmetry operations in each class and the name of the first element:

     E        1
          identity                                               
     8C3     17   19   20   18   24   21   22   23
          120 deg rotation - cart. axis [-1,-1,-1]               
     3C2      2    4    3
          180 deg rotation - cart. axis [0,0,1]                  
     6C4      7    8   15   16   12   11
           90 deg rotation - cart. axis [0,0,-1]                 
     6C2'     5    6   14   13   10    9
          180 deg rotation - cart. axis [1,1,0]                  
     i       25
          inversion                                              
     8S6     41   43   44   42   48   45   46   47
          inv. 120 deg rotation - cart. axis [-1,-1,-1]          
     3s_h    26   28   27
          inv. 180 deg rotation - cart. axis [0,0,1]             
     6S4     31   32   39   40   36   35
          inv.  90 deg rotation - cart. axis [0,0,-1]            
     6s_d    29   30   38   37   34   33
          inv. 180 deg rotation - cart. axis [1,1,0]             

   Cartesian axes

     site n.     atom                  positions (alat units)
         1           Si  tau(   1) = (   0.0000000   0.0000000   0.0000000  )
         2           Si  tau(   2) = (   0.2500000   0.2500000   0.2500000  )

   Crystallographic axes

     site n.     atom                  positions (cryst. coord.)
         1           Si  tau(   1) = (  0.0000000  0.0000000  0.0000000  )
         2           Si  tau(   2) = ( -0.2500000  0.7500000 -0.2500000  )

     number of k points=   201
                       cart. coord. in units 2pi/alat
        k(    1) = (   0.0000000   0.0000000   1.0000000), wk =   0.0099502
        k(    2) = (   0.0000000   0.0000000   0.9750000), wk =   0.0099502
        k(    3) = (   0.0000000   0.0000000   0.9500000), wk =   0.0099502
        k(    4) = (   0.0000000   0.0000000   0.9250000), wk =   0.0099502
        k(    5) = (   0.0000000   0.0000000   0.9000000), wk =   0.0099502
        k(    6) = (   0.0000000   0.0000000   0.8750000), wk =   0.0099502
        k(    7) = (   0.0000000   0.0000000   0.8500000), wk =   0.0099502
        k(    8) = (   0.0000000   0.0000000   0.8250000), wk =   0.0099502
        k(    9) = (   0.0000000   0.0000000   0.8000000), wk =   0.0099502
        k(   10) = (   0.0000000   0.0000000   0.7750000), wk =   0.0099502
        k(   11) = (   0.0000000   0.0000000   0.7500000), wk =   0.0099502
        k(   12) = (   0.0000000   0.0000000   0.7250000), wk =   0.0099502
        k(   13) = (   0.0000000   0.0000000   0.7000000), wk =   0.0099502
        k(   14) = (   0.0000000   0.0000000   0.6750000), wk =   0.0099502
        k(   15) = (   0.0000000   0.0000000   0.6500000), wk =   0.0099502
        k(   16) = (   0.0000000   0.0000000   0.6250000), wk =   0.0099502
        k(   17) = (   0.0000000   0.0000000   0.6000000), wk =   0.0099502
        k(   18) = (   0.0000000   0.0000000   0.5750000), wk =   0.0099502
        k(   19) = (   0.0000000   0.0000000   0.5500000), wk =   0.0099502
        k(   20) = (   0.0000000   0.0000000   0.5250000), wk =   0.0099502
        k(   21) = (   0.0000000   0.0000000   0.5000000), wk =   0.0099502
        k(   22) = (   0.0000000   0.0000000   0.4750000), wk =   0.0099502
        k(   23) = (   0.0000000   0.0000000   0.4500000), wk =   0.0099502
        k(   24) = (   0.0000000   0.0000000   0.4250000), wk =   0.0099502
        k(   25) = (   0.0000000   0.0000000   0.4000000), wk =   0.0099502
        k(   26) = (   0.0000000   0.0000000   0.3750000), wk =   0.0099502
        k(   27) = (   0.0000000   0.0000000   0.3500000), wk =   0.0099502
        k(   28) = (   0.0000000   0.0000000   0.3250000), wk =   0.0099502
        k(   29) = (   0.0000000   0.0000000   0.3000000), wk =   0.0099502
        k(   30) = (   0.0000000   0.0000000   0.2750000), wk =   0.0099502
        k(   31) = (   0.0000000   0.0000000   0.2500000), wk =   0.0099502
        k(   32) = (   0.0000000   0.0000000   0.2250000), wk =   0.0099502
        k(   33) = (   0.0000000   0.0000000   0.2000000), wk =   0.0099502
        k(   34) = (   0.0000000   0.0000000   0.1750000), wk =   0.0099502
        k(   35) = (   0.0000000   0.0000000   0.1500000), wk =   0.0099502
        k(   36) = (   0.0000000   0.0000000   0.1250000), wk =   0.0099502
        k(   37) = (   0.0000000   0.0000000   0.1000000), wk =   0.0099502
        k(   38) = (   0.0000000   0.0000000   0.0750000), wk =   0.0099502
        k(   39) = (   0.0000000   0.0000000   0.0500000), wk =   0.0099502
        k(   40) = (   0.0000000   0.0000000   0.0250000), wk =   0.0099502
        k(   41) = (   0.0000000   0.0000000   0.0000000), wk =   0.0099502
        k(   42) = (  -0.0125000   0.0125000   0.0125000), wk =   0.0099502
        k(   43) = (  -0.0250000   0.0250000   0.0250000), wk =   0.0099502
        k(   44) = (  -0.0375000   0.0375000   0.0375000), wk =   0.0099502
        k(   45) = (  -0.0500000   0.0500000   0.0500000), wk =   0.0099502
        k(   46) = (  -0.0625000   0.0625000   0.0625000), wk =   0.0099502
        k(   47) = (  -0.0750000   0.0750000   0.0750000), wk =   0.0099502
        k(   48) = (  -0.0875000   0.0875000   0.0875000), wk =   0.0099502
        k(   49) = (  -0.1000000   0.1000000   0.1000000), wk =   0.0099502
        k(   50) = (  -0.1125000   0.1125000   0.1125000), wk =   0.0099502
        k(   51) = (  -0.1250000   0.1250000   0.1250000), wk =   0.0099502
        k(   52) = (  -0.1375000   0.1375000   0.1375000), wk =   0.0099502
        k(   53) = (  -0.1500000   0.1500000   0.1500000), wk =   0.0099502
        k(   54) = (  -0.1625000   0.1625000   0.1625000), wk =   0.0099502
        k(   55) = (  -0.1750000   0.1750000   0.1750000), wk =   0.0099502
        k(   56) = (  -0.1875000   0.1875000   0.1875000), wk =   0.0099502
        k(   57) = (  -0.2000000   0.2000000   0.2000000), wk =   0.0099502
        k(   58) = (  -0.2125000   0.2125000   0.2125000), wk =   0.0099502
        k(   59) = (  -0.2250000   0.2250000   0.2250000), wk =   0.0099502
        k(   60) = (  -0.2375000   0.2375000   0.2375000), wk =   0.0099502
        k(   61) = (  -0.2500000   0.2500000   0.2500000), wk =   0.0099502
        k(   62) = (  -0.2625000   0.2625000   0.2625000), wk =   0.0099502
        k(   63) = (  -0.2750000   0.2750000   0.2750000), wk =   0.0099502
        k(   64) = (  -0.2875000   0.2875000   0.2875000), wk =   0.0099502
        k(   65) = (  -0.3000000   0.3000000   0.3000000), wk =   0.0099502
        k(   66) = (  -0.3125000   0.3125000   0.3125000), wk =   0.0099502
        k(   67) = (  -0.3250000   0.3250000   0.3250000), wk =   0.0099502
        k(   68) = (  -0.3375000   0.3375000   0.3375000), wk =   0.0099502
        k(   69) = (  -0.3500000   0.3500000   0.3500000), wk =   0.0099502
        k(   70) = (  -0.3625000   0.3625000   0.3625000), wk =   0.0099502
        k(   71) = (  -0.3750000   0.3750000   0.3750000), wk =   0.0099502
        k(   72) = (  -0.3875000   0.3875000   0.3875000), wk =   0.0099502
        k(   73) = (  -0.4000000   0.4000000   0.4000000), wk =   0.0099502
        k(   74) = (  -0.4125000   0.4125000   0.4125000), wk =   0.0099502
        k(   75) = (  -0.4250000   0.4250000   0.4250000), wk =   0.0099502
        k(   76) = (  -0.4375000   0.4375000   0.4375000), wk =   0.0099502
        k(   77) = (  -0.4500000   0.4500000   0.4500000), wk =   0.0099502
        k(   78) = (  -0.4625000   0.4625000   0.4625000), wk =   0.0099502
        k(   79) = (  -0.4750000   0.4750000   0.4750000), wk =   0.0099502
        k(   80) = (  -0.4875000   0.4875000   0.4875000), wk =   0.0099502
        k(   81) = (  -0.5000000   0.5000000   0.5000000), wk =   0.0099502
        k(   82) = (  -0.5000000   0.4875000   0.5125000), wk =   0.0099502
        k(   83) = (  -0.5000000   0.4750000   0.5250000), wk =   0.0099502
        k(   84) = (  -0.5000000   0.4625000   0.5375000), wk =   0.0099502
        k(   85) = (  -0.5000000   0.4500000   0.5500000), wk =   0.0099502
        k(   86) = (  -0.5000000   0.4375000   0.5625000), wk =   0.0099502
        k(   87) = (  -0.5000000   0.4250000   0.5750000), wk =   0.0099502
        k(   88) = (  -0.5000000   0.4125000   0.5875000), wk =   0.0099502
        k(   89) = (  -0.5000000   0.4000000   0.6000000), wk =   0.0099502
        k(   90) = (  -0.5000000   0.3875000   0.6125000), wk =   0.0099502
        k(   91) = (  -0.5000000   0.3750000   0.6250000), wk =   0.0099502
        k(   92) = (  -0.5000000   0.3625000   0.6375000), wk =   0.0099502
        k(   93) = (  -0.5000000   0.3500000   0.6500000), wk =   0.0099502
        k(   94) = (  -0.5000000   0.3375000   0.6625000), wk =   0.0099502
        k(   95) = (  -0.5000000   0.3250000   0.6750000), wk =   0.0099502
        k(   96) = (  -0.5000000   0.3125000   0.6875000), wk =   0.0099502
        k(   97) = (  -0.5000000   0.3000000   0.7000000), wk =   0.0099502
        k(   98) = (  -0.5000000   0.2875000   0.7125000), wk =   0.0099502
        k(   99) = (  -0.5000000   0.2750000   0.7250000), wk =   0.0099502
        k(  100) = (  -0.5000000   0.2625000   0.7375000), wk =   0.0099502
        k(  101) = (  -0.5000000   0.2500000   0.7500000), wk =   0.0099502
        k(  102) = (  -0.5000000   0.2375000   0.7625000), wk =   0.0099502
        k(  103) = (  -0.5000000   0.2250000   0.7750000), wk =   0.0099502
        k(  104) = (  -0.5000000   0.2125000   0.7875000), wk =   0.0099502
        k(  105) = (  -0.5000000   0.2000000   0.8000000), wk =   0.0099502
        k(  106) = (  -0.5000000   0.1875000   0.8125000), wk =   0.0099502
        k(  107) = (  -0.5000000   0.1750000   0.8250000), wk =   0.0099502
        k(  108) = (  -0.5000000   0.1625000   0.8375000), wk =   0.0099502
        k(  109) = (  -0.5000000   0.1500000   0.8500000), wk =   0.0099502
        k(  110) = (  -0.5000000   0.1375000   0.8625000), wk =   0.0099502
        k(  111) = (  -0.5000000   0.1250000   0.8750000), wk =   0.0099502
        k(  112) = (  -0.5000000   0.1125000   0.8875000), wk =   0.0099502
        k(  113) = (  -0.5000000   0.1000000   0.9000000), wk =   0.0099502
        k(  114) = (  -0.5000000   0.0875000   0.9125000), wk =   0.0099502
        k(  115) = (  -0.5000000   0.0750000   0.9250000), wk =   0.0099502
        k(  116) = (  -0.5000000   0.0625000   0.9375000), wk =   0.0099502
        k(  117) = (  -0.5000000   0.0500000   0.9500000), wk =   0.0099502
        k(  118) = (  -0.5000000   0.0375000   0.9625000), wk =   0.0099502
        k(  119) = (  -0.5000000   0.0250000   0.9750000), wk =   0.0099502
        k(  120) = (  -0.5000000   0.0125000   0.9875000), wk =   0.0099502
        k(  121) = (  -0.5000000   0.0000000   1.0000000), wk =   0.0099502
        k(  122) = (  -0.5062500   0.0000000   0.9937500), wk =   0.0099502
        k(  123) = (  -0.5125000   0.0000000   0.9875000), wk =   0.0099502
        k(  124) = (  -0.5187500   0.0000000   0.9812500), wk =   0.0099502
        k(  125) = (  -0.5250000   0.0000000   0.9750000), wk =   0.0099502
        k(  126) = (  -0.5312500   0.0000000   0.9687500), wk =   0.0099502
        k(  127) = (  -0.5375000   0.0000000   0.9625000), wk =   0.0099502
        k(  128) = (  -0.5437500   0.0000000   0.9562500), wk =   0.0099502
        k(  129) = (  -0.5500000   0.0000000   0.9500000), wk =   0.0099502
        k(  130) = (  -0.5562500   0.0000000   0.9437500), wk =   0.0099502
        k(  131) = (  -0.5625000   0.0000000   0.9375000), wk =   0.0099502
        k(  132) = (  -0.5687500   0.0000000   0.9312500), wk =   0.0099502
        k(  133) = (  -0.5750000   0.0000000   0.9250000), wk =   0.0099502
        k(  134) = (  -0.5812500   0.0000000   0.9187500), wk =   0.0099502
        k(  135) = (  -0.5875000   0.0000000   0.9125000), wk =   0.0099502
        k(  136) = (  -0.5937500   0.0000000   0.9062500), wk =   0.0099502
        k(  137) = (  -0.6000000   0.0000000   0.9000000), wk =   0.0099502
        k(  138) = (  -0.6062500   0.0000000   0.8937500), wk =   0.0099502
        k(  139) = (  -0.6125000   0.0000000   0.8875000), wk =   0.0099502
        k(  140) = (  -0.6187500   0.0000000   0.8812500), wk =   0.0099502
        k(  141) = (  -0.6250000   0.0000000   0.8750000), wk =   0.0099502
        k(  142) = (  -0.6312500   0.0000000   0.8687500), wk =   0.0099502
        k(  143) = (  -0.6375000   0.0000000   0.8625000), wk =   0.0099502
        k(  144) = (  -0.6437500   0.0000000   0.8562500), wk =   0.0099502
        k(  145) = (  -0.6500000   0.0000000   0.8500000), wk =   0.0099502
        k(  146) = (  -0.6562500   0.0000000   0.8437500), wk =   0.0099502
        k(  147) = (  -0.6625000   0.0000000   0.8375000), wk =   0.0099502
        k(  148) = (  -0.6687500   0.0000000   0.8312500), wk =   0.0099502
        k(  149) = (  -0.6750000   0.0000000   0.8250000), wk =   0.0099502
        k(  150) = (  -0.6812500   0.0000000   0.8187500), wk =   0.0099502
        k(  151) = (  -0.6875000   0.0000000   0.8125000), wk =   0.0099502
        k(  152) = (  -0.6937500   0.0000000   0.8062500), wk =   0.0099502
        k(  153) = (  -0.7000000   0.0000000   0.8000000), wk =   0.0099502
        k(  154) = (  -0.7062500   0.0000000   0.7937500), wk =   0.0099502
        k(  155) = (  -0.7125000   0.0000000   0.7875000), wk =   0.0099502
        k(  156) = (  -0.7187500   0.0000000   0.7812500), wk =   0.0099502
        k(  157) = (  -0.7250000   0.0000000   0.7750000), wk =   0.0099502
        k(  158) = (  -0.7312500   0.0000000   0.7687500), wk =   0.0099502
        k(  159) = (  -0.7375000   0.0000000   0.7625000), wk =   0.0099502
        k(  160) = (  -0.7437500   0.0000000   0.7562500), wk =   0.0099502
        k(  161) = (  -0.7500000   0.0000000   0.7500000), wk =   0.0099502
        k(  162) = (  -0.7312500   0.0000000   0.7312500), wk =   0.0099502
        k(  163) = (  -0.7125000   0.0000000   0.7125000), wk =   0.0099502
        k(  164) = (  -0.6937500   0.0000000   0.6937500), wk =   0.0099502
        k(  165) = (  -0.6750000   0.0000000   0.6750000), wk =   0.0099502
        k(  166) = (  -0.6562500   0.0000000   0.6562500), wk =   0.0099502
        k(  167) = (  -0.6375000   0.0000000   0.6375000), wk =   0.0099502
        k(  168) = (  -0.6187500   0.0000000   0.6187500), wk =   0.0099502
        k(  169) = (  -0.6000000   0.0000000   0.6000000), wk =   0.0099502
        k(  170) = (  -0.5812500   0.0000000   0.5812500), wk =   0.0099502
        k(  171) = (  -0.5625000   0.0000000   0.5625000), wk =   0.0099502
        k(  172) = (  -0.5437500   0.0000000   0.5437500), wk =   0.0099502
        k(  173) = (  -0.5250000   0.0000000   0.5250000), wk =   0.0099502
        k(  174) = (  -0.5062500   0.0000000   0.5062500), wk =   0.0099502
        k(  175) = (  -0.4875000   0.0000000   0.4875000), wk =   0.0099502
        k(  176) = (  -0.4687500   0.0000000   0.4687500), wk =   0.0099502
        k(  177) = (  -0.4500000   0.0000000   0.4500000), wk =   0.0099502
        k(  178) = (  -0.4312500   0.0000000   0.4312500), wk =   0.0099502
        k(  179) = (  -0.4125000   0.0000000   0.4125000), wk =   0.0099502
        k(  180) = (  -0.3937500   0.0000000   0.3937500), wk =   0.0099502
        k(  181) = (  -0.3750000   0.0000000   0.3750000), wk =   0.0099502
        k(  182) = (  -0.3562500   0.0000000   0.3562500), wk =   0.0099502
        k(  183) = (  -0.3375000   0.0000000   0.3375000), wk =   0.0099502
        k(  184) = (  -0.3187500   0.0000000   0.3187500), wk =   0.0099502
        k(  185) = (  -0.3000000   0.0000000   0.3000000), wk =   0.0099502
        k(  186) = (  -0.2812500   0.0000000   0.2812500), wk =   0.0099502
        k(  187) = (  -0.2625000   0.0000000   0.2625000), wk =   0.0099502
        k(  188) = (  -0.2437500   0.0000000   0.2437500), wk =   0.0099502
        k(  189) = (  -0.2250000   0.0000000   0.2250000), wk =   0.0099502
        k(  190) = (  -0.2062500   0.0000000   0.2062500), wk =   0.0099502
        k(  191) = (  -0.1875000   0.0000000   0.1875000), wk =   0.0099502
        k(  192) = (  -0.1687500   0.0000000   0.1687500), wk =   0.0099502
        k(  193) = (  -0.1500000   0.0000000   0.1500000), wk =   0.0099502
        k(  194) = (  -0.1312500   0.0000000   0.1312500), wk =   0.0099502
        k(  195) = (  -0.1125000   0.0000000   0.1125000), wk =   0.0099502
        k(  196) = (  -0.0937500   0.0000000   0.0937500), wk =   0.0099502
        k(  197) = (  -0.0750000   0.0000000   0.0750000), wk =   0.0099502
        k(  198) = (  -0.0562500   0.0000000   0.0562500), wk =   0.0099502
        k(  199) = (  -0.0375000   0.0000000   0.0375000), wk =   0.0099502
        k(  200) = (  -0.0187500   0.0000000   0.0187500), wk =   0.0099502
        k(  201) = (   0.0000000   0.0000000   0.0000000), wk =   0.0099502

                       cryst. coord.
        k(    1) = (   0.5000000   0.5000000   0.0000000), wk =   0.0099502
        k(    2) = (   0.4875000   0.4875000   0.0000000), wk =   0.0099502
        k(    3) = (   0.4750000   0.4750000   0.0000000), wk =   0.0099502
        k(    4) = (   0.4625000   0.4625000   0.0000000), wk =   0.0099502
        k(    5) = (   0.4500000   0.4500000   0.0000000), wk =   0.0099502
        k(    6) = (   0.4375000   0.4375000   0.0000000), wk =   0.0099502
        k(    7) = (   0.4250000   0.4250000   0.0000000), wk =   0.0099502
        k(    8) = (   0.4125000   0.4125000   0.0000000), wk =   0.0099502
        k(    9) = (   0.4000000   0.4000000   0.0000000), wk =   0.0099502
        k(   10) = (   0.3875000   0.3875000   0.0000000), wk =   0.0099502
        k(   11) = (   0.3750000   0.3750000   0.0000000), wk =   0.0099502
        k(   12) = (   0.3625000   0.3625000   0.0000000), wk =   0.0099502
        k(   13) = (   0.3500000   0.3500000   0.0000000), wk =   0.0099502
        k(   14) = (   0.3375000   0.3375000   0.0000000), wk =   0.0099502
        k(   15) = (   0.3250000   0.3250000   0.0000000), wk =   0.0099502
        k(   16) = (   0.3125000   0.3125000   0.0000000), wk =   0.0099502
        k(   17) = (   0.3000000   0.3000000   0.0000000), wk =   0.0099502
        k(   18) = (   0.2875000   0.2875000   0.0000000), wk =   0.0099502
        k(   19) = (   0.2750000   0.2750000   0.0000000), wk =   0.0099502
        k(   20) = (   0.2625000   0.2625000   0.0000000), wk =   0.0099502
        k(   21) = (   0.2500000   0.2500000   0.0000000), wk =   0.0099502
        k(   22) = (   0.2375000   0.2375000   0.0000000), wk =   0.0099502
        k(   23) = (   0.2250000   0.2250000   0.0000000), wk =   0.0099502
        k(   24) = (   0.2125000   0.2125000   0.0000000), wk =   0.0099502
        k(   25) = (   0.2000000   0.2000000   0.0000000), wk =   0.0099502
        k(   26) = (   0.1875000   0.1875000   0.0000000), wk =   0.0099502
        k(   27) = (   0.1750000   0.1750000   0.0000000), wk =   0.0099502
        k(   28) = (   0.1625000   0.1625000   0.0000000), wk =   0.0099502
        k(   29) = (   0.1500000   0.1500000   0.0000000), wk =   0.0099502
        k(   30) = (   0.1375000   0.1375000   0.0000000), wk =   0.0099502
        k(   31) = (   0.1250000   0.1250000   0.0000000), wk =   0.0099502
        k(   32) = (   0.1125000   0.1125000   0.0000000), wk =   0.0099502
        k(   33) = (   0.1000000   0.1000000   0.0000000), wk =   0.0099502
        k(   34) = (   0.0875000   0.0875000   0.0000000), wk =   0.0099502
        k(   35) = (   0.0750000   0.0750000   0.0000000), wk =   0.0099502
        k(   36) = (   0.0625000   0.0625000   0.0000000), wk =   0.0099502
        k(   37) = (   0.0500000   0.0500000   0.0000000), wk =   0.0099502
        k(   38) = (   0.0375000   0.0375000   0.0000000), wk =   0.0099502
        k(   39) = (   0.0250000   0.0250000   0.0000000), wk =   0.0099502
        k(   40) = (   0.0125000   0.0125000   0.0000000), wk =   0.0099502
        k(   41) = (   0.0000000   0.0000000   0.0000000), wk =   0.0099502
        k(   42) = (   0.0125000   0.0125000   0.0125000), wk =   0.0099502
        k(   43) = (   0.0250000   0.0250000   0.0250000), wk =   0.0099502
        k(   44) = (   0.0375000   0.0375000   0.0375000), wk =   0.0099502
        k(   45) = (   0.0500000   0.0500000   0.0500000), wk =   0.0099502
        k(   46) = (   0.0625000   0.0625000   0.0625000), wk =   0.0099502
        k(   47) = (   0.0750000   0.0750000   0.0750000), wk =   0.0099502
        k(   48) = (   0.0875000   0.0875000   0.0875000), wk =   0.0099502
        k(   49) = (   0.1000000   0.1000000   0.1000000), wk =   0.0099502
        k(   50) = (   0.1125000   0.1125000   0.1125000), wk =   0.0099502
        k(   51) = (   0.1250000   0.1250000   0.1250000), wk =   0.0099502
        k(   52) = (   0.1375000   0.1375000   0.1375000), wk =   0.0099502
        k(   53) = (   0.1500000   0.1500000   0.1500000), wk =   0.0099502
        k(   54) = (   0.1625000   0.1625000   0.1625000), wk =   0.0099502
        k(   55) = (   0.1750000   0.1750000   0.1750000), wk =   0.0099502
        k(   56) = (   0.1875000   0.1875000   0.1875000), wk =   0.0099502
        k(   57) = (   0.2000000   0.2000000   0.2000000), wk =   0.0099502
        k(   58) = (   0.2125000   0.2125000   0.2125000), wk =   0.0099502
        k(   59) = (   0.2250000   0.2250000   0.2250000), wk =   0.0099502
        k(   60) = (   0.2375000   0.2375000   0.2375000), wk =   0.0099502
        k(   61) = (   0.2500000   0.2500000   0.2500000), wk =   0.0099502
        k(   62) = (   0.2625000   0.2625000   0.2625000), wk =   0.0099502
        k(   63) = (   0.2750000   0.2750000   0.2750000), wk =   0.0099502
        k(   64) = (   0.2875000   0.2875000   0.2875000), wk =   0.0099502
        k(   65) = (   0.3000000   0.3000000   0.3000000), wk =   0.0099502
        k(   66) = (   0.3125000   0.3125000   0.3125000), wk =   0.0099502
        k(   67) = (   0.3250000   0.3250000   0.3250000), wk =   0.0099502
        k(   68) = (   0.3375000   0.3375000   0.3375000), wk =   0.0099502
        k(   69) = (   0.3500000   0.3500000   0.3500000), wk =   0.0099502
        k(   70) = (   0.3625000   0.3625000   0.3625000), wk =   0.0099502
        k(   71) = (   0.3750000   0.3750000   0.3750000), wk =   0.0099502
        k(   72) = (   0.3875000   0.3875000   0.3875000), wk =   0.0099502
        k(   73) = (   0.4000000   0.4000000   0.4000000), wk =   0.0099502
        k(   74) = (   0.4125000   0.4125000   0.4125000), wk =   0.0099502
        k(   75) = (   0.4250000   0.4250000   0.4250000), wk =   0.0099502
        k(   76) = (   0.4375000   0.4375000   0.4375000), wk =   0.0099502
        k(   77) = (   0.4500000   0.4500000   0.4500000), wk =   0.0099502
        k(   78) = (   0.4625000   0.4625000   0.4625000), wk =   0.0099502
        k(   79) = (   0.4750000   0.4750000   0.4750000), wk =   0.0099502
        k(   80) = (   0.4875000   0.4875000   0.4875000), wk =   0.0099502
        k(   81) = (   0.5000000   0.5000000   0.5000000), wk =   0.0099502
        k(   82) = (   0.5062500   0.5000000   0.4937500), wk =   0.0099502
        k(   83) = (   0.5125000   0.5000000   0.4875000), wk =   0.0099502
        k(   84) = (   0.5187500   0.5000000   0.4812500), wk =   0.0099502
        k(   85) = (   0.5250000   0.5000000   0.4750000), wk =   0.0099502
        k(   86) = (   0.5312500   0.5000000   0.4687500), wk =   0.0099502
        k(   87) = (   0.5375000   0.5000000   0.4625000), wk =   0.0099502
        k(   88) = (   0.5437500   0.5000000   0.4562500), wk =   0.0099502
        k(   89) = (   0.5500000   0.5000000   0.4500000), wk =   0.0099502
        k(   90) = (   0.5562500   0.5000000   0.4437500), wk =   0.0099502
        k(   91) = (   0.5625000   0.5000000   0.4375000), wk =   0.0099502
        k(   92) = (   0.5687500   0.5000000   0.4312500), wk =   0.0099502
        k(   93) = (   0.5750000   0.5000000   0.4250000), wk =   0.0099502
        k(   94) = (   0.5812500   0.5000000   0.4187500), wk =   0.0099502
        k(   95) = (   0.5875000   0.5000000   0.4125000), wk =   0.0099502
        k(   96) = (   0.5937500   0.5000000   0.4062500), wk =   0.0099502
        k(   97) = (   0.6000000   0.5000000   0.4000000), wk =   0.0099502
        k(   98) = (   0.6062500   0.5000000   0.3937500), wk =   0.0099502
        k(   99) = (   0.6125000   0.5000000   0.3875000), wk =   0.0099502
        k(  100) = (   0.6187500   0.5000000   0.3812500), wk =   0.0099502
        k(  101) = (   0.6250000   0.5000000   0.3750000), wk =   0.0099502
        k(  102) = (   0.6312500   0.5000000   0.3687500), wk =   0.0099502
        k(  103) = (   0.6375000   0.5000000   0.3625000), wk =   0.0099502
        k(  104) = (   0.6437500   0.5000000   0.3562500), wk =   0.0099502
        k(  105) = (   0.6500000   0.5000000   0.3500000), wk =   0.0099502
        k(  106) = (   0.6562500   0.5000000   0.3437500), wk =   0.0099502
        k(  107) = (   0.6625000   0.5000000   0.3375000), wk =   0.0099502
        k(  108) = (   0.6687500   0.5000000   0.3312500), wk =   0.0099502
        k(  109) = (   0.6750000   0.5000000   0.3250000), wk =   0.0099502
        k(  110) = (   0.6812500   0.5000000   0.3187500), wk =   0.0099502
        k(  111) = (   0.6875000   0.5000000   0.3125000), wk =   0.0099502
        k(  112) = (   0.6937500   0.5000000   0.3062500), wk =   0.0099502
        k(  113) = (   0.7000000   0.5000000   0.3000000), wk =   0.0099502
        k(  114) = (   0.7062500   0.5000000   0.2937500), wk =   0.0099502
        k(  115) = (   0.7125000   0.5000000   0.2875000), wk =   0.0099502
        k(  116) = (   0.7187500   0.5000000   0.2812500), wk =   0.0099502
        k(  117) = (   0.7250000   0.5000000   0.2750000), wk =   0.0099502
        k(  118) = (   0.7312500   0.5000000   0.2687500), wk =   0.0099502
        k(  119) = (   0.7375000   0.5000000   0.2625000), wk =   0.0099502
        k(  120) = (   0.7437500   0.5000000   0.2562500), wk =   0.0099502
        k(  121) = (   0.7500000   0.5000000   0.2500000), wk =   0.0099502
        k(  122) = (   0.7500000   0.4968750   0.2531250), wk =   0.0099502
        k(  123) = (   0.7500000   0.4937500   0.2562500), wk =   0.0099502
        k(  124) = (   0.7500000   0.4906250   0.2593750), wk =   0.0099502
        k(  125) = (   0.7500000   0.4875000   0.2625000), wk =   0.0099502
        k(  126) = (   0.7500000   0.4843750   0.2656250), wk =   0.0099502
        k(  127) = (   0.7500000   0.4812500   0.2687500), wk =   0.0099502
        k(  128) = (   0.7500000   0.4781250   0.2718750), wk =   0.0099502
        k(  129) = (   0.7500000   0.4750000   0.2750000), wk =   0.0099502
        k(  130) = (   0.7500000   0.4718750   0.2781250), wk =   0.0099502
        k(  131) = (   0.7500000   0.4687500   0.2812500), wk =   0.0099502
        k(  132) = (   0.7500000   0.4656250   0.2843750), wk =   0.0099502
        k(  133) = (   0.7500000   0.4625000   0.2875000), wk =   0.0099502
        k(  134) = (   0.7500000   0.4593750   0.2906250), wk =   0.0099502
        k(  135) = (   0.7500000   0.4562500   0.2937500), wk =   0.0099502
        k(  136) = (   0.7500000   0.4531250   0.2968750), wk =   0.0099502
        k(  137) = (   0.7500000   0.4500000   0.3000000), wk =   0.0099502
        k(  138) = (   0.7500000   0.4468750   0.3031250), wk =   0.0099502
        k(  139) = (   0.7500000   0.4437500   0.3062500), wk =   0.0099502
        k(  140) = (   0.7500000   0.4406250   0.3093750), wk =   0.0099502
        k(  141) = (   0.7500000   0.4375000   0.3125000), wk =   0.0099502
        k(  142) = (   0.7500000   0.4343750   0.3156250), wk =   0.0099502
        k(  143) = (   0.7500000   0.4312500   0.3187500), wk =   0.0099502
        k(  144) = (   0.7500000   0.4281250   0.3218750), wk =   0.0099502
        k(  145) = (   0.7500000   0.4250000   0.3250000), wk =   0.0099502
        k(  146) = (   0.7500000   0.4218750   0.3281250), wk =   0.0099502
        k(  147) = (   0.7500000   0.4187500   0.3312500), wk =   0.0099502
        k(  148) = (   0.7500000   0.4156250   0.3343750), wk =   0.0099502
        k(  149) = (   0.7500000   0.4125000   0.3375000), wk =   0.0099502
        k(  150) = (   0.7500000   0.4093750   0.3406250), wk =   0.0099502
        k(  151) = (   0.7500000   0.4062500   0.3437500), wk =   0.0099502
        k(  152) = (   0.7500000   0.4031250   0.3468750), wk =   0.0099502
        k(  153) = (   0.7500000   0.4000000   0.3500000), wk =   0.0099502
        k(  154) = (   0.7500000   0.3968750   0.3531250), wk =   0.0099502
        k(  155) = (   0.7500000   0.3937500   0.3562500), wk =   0.0099502
        k(  156) = (   0.7500000   0.3906250   0.3593750), wk =   0.0099502
        k(  157) = (   0.7500000   0.3875000   0.3625000), wk =   0.0099502
        k(  158) = (   0.7500000   0.3843750   0.3656250), wk =   0.0099502
        k(  159) = (   0.7500000   0.3812500   0.3687500), wk =   0.0099502
        k(  160) = (   0.7500000   0.3781250   0.3718750), wk =   0.0099502
        k(  161) = (   0.7500000   0.3750000   0.3750000), wk =   0.0099502
        k(  162) = (   0.7312500   0.3656250   0.3656250), wk =   0.0099502
        k(  163) = (   0.7125000   0.3562500   0.3562500), wk =   0.0099502
        k(  164) = (   0.6937500   0.3468750   0.3468750), wk =   0.0099502
        k(  165) = (   0.6750000   0.3375000   0.3375000), wk =   0.0099502
        k(  166) = (   0.6562500   0.3281250   0.3281250), wk =   0.0099502
        k(  167) = (   0.6375000   0.3187500   0.3187500), wk =   0.0099502
        k(  168) = (   0.6187500   0.3093750   0.3093750), wk =   0.0099502
        k(  169) = (   0.6000000   0.3000000   0.3000000), wk =   0.0099502
        k(  170) = (   0.5812500   0.2906250   0.2906250), wk =   0.0099502
        k(  171) = (   0.5625000   0.2812500   0.2812500), wk =   0.0099502
        k(  172) = (   0.5437500   0.2718750   0.2718750), wk =   0.0099502
        k(  173) = (   0.5250000   0.2625000   0.2625000), wk =   0.0099502
        k(  174) = (   0.5062500   0.2531250   0.2531250), wk =   0.0099502
        k(  175) = (   0.4875000   0.2437500   0.2437500), wk =   0.0099502
        k(  176) = (   0.4687500   0.2343750   0.2343750), wk =   0.0099502
        k(  177) = (   0.4500000   0.2250000   0.2250000), wk =   0.0099502
        k(  178) = (   0.4312500   0.2156250   0.2156250), wk =   0.0099502
        k(  179) = (   0.4125000   0.2062500   0.2062500), wk =   0.0099502
        k(  180) = (   0.3937500   0.1968750   0.1968750), wk =   0.0099502
        k(  181) = (   0.3750000   0.1875000   0.1875000), wk =   0.0099502
        k(  182) = (   0.3562500   0.1781250   0.1781250), wk =   0.0099502
        k(  183) = (   0.3375000   0.1687500   0.1687500), wk =   0.0099502
        k(  184) = (   0.3187500   0.1593750   0.1593750), wk =   0.0099502
        k(  185) = (   0.3000000   0.1500000   0.1500000), wk =   0.0099502
        k(  186) = (   0.2812500   0.1406250   0.1406250), wk =   0.0099502
        k(  187) = (   0.2625000   0.1312500   0.1312500), wk =   0.0099502
        k(  188) = (   0.2437500   0.1218750   0.1218750), wk =   0.0099502
        k(  189) = (   0.2250000   0.1125000   0.1125000), wk =   0.0099502
        k(  190) = (   0.2062500   0.1031250   0.1031250), wk =   0.0099502
        k(  191) = (   0.1875000   0.0937500   0.0937500), wk =   0.0099502
        k(  192) = (   0.1687500   0.0843750   0.0843750), wk =   0.0099502
        k(  193) = (   0.1500000   0.0750000   0.0750000), wk =   0.0099502
        k(  194) = (   0.1312500   0.0656250   0.0656250), wk =   0.0099502
        k(  195) = (   0.1125000   0.0562500   0.0562500), wk =   0.0099502
        k(  196) = (   0.0937500   0.0468750   0.0468750), wk =   0.0099502
        k(  197) = (   0.0750000   0.0375000   0.0375000), wk =   0.0099502
        k(  198) = (   0.0562500   0.0281250   0.0281250), wk =   0.0099502
        k(  199) = (   0.0375000   0.0187500   0.0187500), wk =   0.0099502
        k(  200) = (   0.0187500   0.0093750   0.0093750), wk =   0.0099502
        k(  201) = (   0.0000000   0.0000000   0.0000000), wk =   0.0099502

     Dense  grid:    17453 G-vectors     FFT dimensions: (  40,  40,  40)

     Dynamical RAM for                 wfc:       0.33 MB

     Dynamical RAM for     wfc (w. buffer):       0.33 MB

     Dynamical RAM for           str. fact:       0.27 MB

     Dynamical RAM for           local pot:       0.00 MB

     Dynamical RAM for          nlocal pot:       0.53 MB

     Dynamical RAM for                qrad:       0.36 MB

     Dynamical RAM for          rho,v,vnew:       2.26 MB

     Dynamical RAM for           G-vectors:       1.13 MB

     Dynamical RAM for          h,s,v(r/c):       0.02 MB

     Dynamical RAM for          <psi|beta>:       0.00 MB

     Dynamical RAM for                 psi:       0.66 MB

     Dynamical RAM for                hpsi:       0.66 MB

     Dynamical RAM for      wfcinit/wfcrot:       0.67 MB

     Estimated static dynamical RAM per process >       7.85 MB

     Estimated max dynamical RAM per process >       9.20 MB

     The potential is recalculated from file :
     ./SCRATCH/silicon.save/charge-density

     Starting wfcs are random

     Band Structure Calculation
     Davidson diagonalization with overlap

     Computing kpt #:     1  of   201
     total cpu time spent up to now is        0.5 secs

     Computing kpt #:     2  of   201
     total cpu time spent up to now is        0.9 secs

     Computing kpt #:     3  of   201
     total cpu time spent up to now is        1.3 secs

     Computing kpt #:     4  of   201
     total cpu time spent up to now is        1.8 secs

     Computing kpt #:     5  of   201
     c_bands:  1 eigenvalues not converged
     total cpu time spent up to now is        2.4 secs

     Computing kpt #:     6  of   201
     total cpu time spent up to now is        3.0 secs

     Computing kpt #:     7  of   201
     total cpu time spent up to now is        3.4 secs

     Computing kpt #:     8  of   201
     total cpu time spent up to now is        3.8 secs

     Computing kpt #:     9  of   201
     total cpu time spent up to now is        4.2 secs

     Computing kpt #:    10  of   201
     total cpu time spent up to now is        4.6 secs

     Computing kpt #:    11  of   201
     total cpu time spent up to now is        5.0 secs

     Computing kpt #:    12  of   201
     total cpu time spent up to now is        5.3 secs

     Computing kpt #:    13  of   201
     total cpu time spent up to now is        5.6 secs

     Computing kpt #:    14  of   201
     total cpu time spent up to now is        6.0 secs

     Computing kpt #:    15  of   201
     total cpu time spent up to now is        6.3 secs

     Computing kpt #:    16  of   201
     total cpu time spent up to now is        6.6 secs

     Computing kpt #:    17  of   201
     total cpu time spent up to now is        6.9 secs

     Computing kpt #:    18  of   201
     total cpu time spent up to now is        7.3 secs

     Computing kpt #:    19  of   201
     total cpu time spent up to now is        7.6 secs

     Computing kpt #:    20  of   201
     total cpu time spent up to now is        7.9 secs

     Computing kpt #:    21  of   201
     total cpu time spent up to now is        8.3 secs

     Computing kpt #:    22  of   201
     total cpu time spent up to now is        8.6 secs

     Computing kpt #:    23  of   201
     total cpu time spent up to now is        8.9 secs

     Computing kpt #:    24  of   201
     total cpu time spent up to now is        9.2 secs

     Computing kpt #:    25  of   201
     total cpu time spent up to now is        9.6 secs

     Computing kpt #:    26  of   201
     total cpu time spent up to now is        9.9 secs

     Computing kpt #:    27  of   201
     total cpu time spent up to now is       10.2 secs

     Computing kpt #:    28  of   201
     total cpu time spent up to now is       10.6 secs

     Computing kpt #:    29  of   201
     total cpu time spent up to now is       10.9 secs

     Computing kpt #:    30  of   201
     total cpu time spent up to now is       11.2 secs

     Computing kpt #:    31  of   201
     total cpu time spent up to now is       11.6 secs

     Computing kpt #:    32  of   201
     total cpu time spent up to now is       12.0 secs

     Computing kpt #:    33  of   201
     total cpu time spent up to now is       12.4 secs

     Computing kpt #:    34  of   201
     total cpu time spent up to now is       12.7 secs

     Computing kpt #:    35  of   201
     total cpu time spent up to now is       13.1 secs

     Computing kpt #:    36  of   201
     total cpu time spent up to now is       13.5 secs

     Computing kpt #:    37  of   201
     total cpu time spent up to now is       13.9 secs

     Computing kpt #:    38  of   201
     total cpu time spent up to now is       14.3 secs

     Computing kpt #:    39  of   201
     total cpu time spent up to now is       14.8 secs

     Computing kpt #:    40  of   201
     total cpu time spent up to now is       15.2 secs

     Computing kpt #:    41  of   201
     total cpu time spent up to now is       15.6 secs

     Computing kpt #:    42  of   201
     total cpu time spent up to now is       16.0 secs

     Computing kpt #:    43  of   201
     total cpu time spent up to now is       16.4 secs

     Computing kpt #:    44  of   201
     total cpu time spent up to now is       16.7 secs

     Computing kpt #:    45  of   201
     total cpu time spent up to now is       17.1 secs

     Computing kpt #:    46  of   201
     total cpu time spent up to now is       17.4 secs

     Computing kpt #:    47  of   201
     total cpu time spent up to now is       17.8 secs

     Computing kpt #:    48  of   201
     total cpu time spent up to now is       18.2 secs

     Computing kpt #:    49  of   201
     total cpu time spent up to now is       18.5 secs

     Computing kpt #:    50  of   201
     total cpu time spent up to now is       18.9 secs

     Computing kpt #:    51  of   201
     total cpu time spent up to now is       19.2 secs

     Computing kpt #:    52  of   201
     total cpu time spent up to now is       19.6 secs

     Computing kpt #:    53  of   201
     total cpu time spent up to now is       19.9 secs

     Computing kpt #:    54  of   201
     total cpu time spent up to now is       20.3 secs

     Computing kpt #:    55  of   201
     total cpu time spent up to now is       20.7 secs

     Computing kpt #:    56  of   201
     total cpu time spent up to now is       21.0 secs

     Computing kpt #:    57  of   201
     total cpu time spent up to now is       21.3 secs

     Computing kpt #:    58  of   201
     total cpu time spent up to now is       21.7 secs

     Computing kpt #:    59  of   201
     total cpu time spent up to now is       22.0 secs

     Computing kpt #:    60  of   201
     total cpu time spent up to now is       22.3 secs

     Computing kpt #:    61  of   201
     total cpu time spent up to now is       22.7 secs

     Computing kpt #:    62  of   201
     total cpu time spent up to now is       23.0 secs

     Computing kpt #:    63  of   201
     total cpu time spent up to now is       23.4 secs

     Computing kpt #:    64  of   201
     total cpu time spent up to now is       23.7 secs

     Computing kpt #:    65  of   201
     total cpu time spent up to now is       24.1 secs

     Computing kpt #:    66  of   201
     total cpu time spent up to now is       24.5 secs

     Computing kpt #:    67  of   201
     total cpu time spent up to now is       24.8 secs

     Computing kpt #:    68  of   201
     total cpu time spent up to now is       25.2 secs

     Computing kpt #:    69  of   201
     total cpu time spent up to now is       25.6 secs

     Computing kpt #:    70  of   201
     total cpu time spent up to now is       26.0 secs

     Computing kpt #:    71  of   201
     total cpu time spent up to now is       26.4 secs

     Computing kpt #:    72  of   201
     total cpu time spent up to now is       26.7 secs

     Computing kpt #:    73  of   201
     total cpu time spent up to now is       27.1 secs

     Computing kpt #:    74  of   201
     total cpu time spent up to now is       27.5 secs

     Computing kpt #:    75  of   201
     total cpu time spent up to now is       27.8 secs

     Computing kpt #:    76  of   201
     total cpu time spent up to now is       28.2 secs

     Computing kpt #:    77  of   201
     total cpu time spent up to now is       28.6 secs

     Computing kpt #:    78  of   201
     total cpu time spent up to now is       29.0 secs

     Computing kpt #:    79  of   201
     total cpu time spent up to now is       29.5 secs

     Computing kpt #:    80  of   201
     total cpu time spent up to now is       29.9 secs

     Computing kpt #:    81  of   201
     total cpu time spent up to now is       30.3 secs

     Computing kpt #:    82  of   201
     total cpu time spent up to now is       30.7 secs

     Computing kpt #:    83  of   201
     total cpu time spent up to now is       31.1 secs

     Computing kpt #:    84  of   201
     total cpu time spent up to now is       31.5 secs

     Computing kpt #:    85  of   201
     total cpu time spent up to now is       31.9 secs

     Computing kpt #:    86  of   201
     total cpu time spent up to now is       32.3 secs

     Computing kpt #:    87  of   201
     total cpu time spent up to now is       32.6 secs

     Computing kpt #:    88  of   201
     total cpu time spent up to now is       33.0 secs

     Computing kpt #:    89  of   201
     total cpu time spent up to now is       33.4 secs

     Computing kpt #:    90  of   201
     total cpu time spent up to now is       33.8 secs

     Computing kpt #:    91  of   201
     total cpu time spent up to now is       34.1 secs

     Computing kpt #:    92  of   201
     total cpu time spent up to now is       34.4 secs

     Computing kpt #:    93  of   201
     total cpu time spent up to now is       34.8 secs

     Computing kpt #:    94  of   201
     total cpu time spent up to now is       35.2 secs

     Computing kpt #:    95  of   201
     total cpu time spent up to now is       35.6 secs

     Computing kpt #:    96  of   201
     total cpu time spent up to now is       35.9 secs

     Computing kpt #:    97  of   201
     total cpu time spent up to now is       36.3 secs

     Computing kpt #:    98  of   201
     total cpu time spent up to now is       36.6 secs

     Computing kpt #:    99  of   201
     total cpu time spent up to now is       37.0 secs

     Computing kpt #:   100  of   201
     total cpu time spent up to now is       37.3 secs

     Computing kpt #:   101  of   201
     total cpu time spent up to now is       37.7 secs

     Computing kpt #:   102  of   201
     total cpu time spent up to now is       38.0 secs

     Computing kpt #:   103  of   201
     total cpu time spent up to now is       38.4 secs

     Computing kpt #:   104  of   201
     total cpu time spent up to now is       38.8 secs

     Computing kpt #:   105  of   201
     total cpu time spent up to now is       39.1 secs

     Computing kpt #:   106  of   201
     total cpu time spent up to now is       39.5 secs

     Computing kpt #:   107  of   201
     total cpu time spent up to now is       39.8 secs

     Computing kpt #:   108  of   201
     total cpu time spent up to now is       40.2 secs

     Computing kpt #:   109  of   201
     total cpu time spent up to now is       40.5 secs

     Computing kpt #:   110  of   201
     total cpu time spent up to now is       40.9 secs

     Computing kpt #:   111  of   201
     total cpu time spent up to now is       41.2 secs

     Computing kpt #:   112  of   201
     total cpu time spent up to now is       41.5 secs

     Computing kpt #:   113  of   201
     total cpu time spent up to now is       41.9 secs

     Computing kpt #:   114  of   201
     total cpu time spent up to now is       42.2 secs

     Computing kpt #:   115  of   201
     total cpu time spent up to now is       42.5 secs

     Computing kpt #:   116  of   201
     total cpu time spent up to now is       42.9 secs

     Computing kpt #:   117  of   201
     total cpu time spent up to now is       43.2 secs

     Computing kpt #:   118  of   201
     total cpu time spent up to now is       43.6 secs

     Computing kpt #:   119  of   201
     total cpu time spent up to now is       43.9 secs

     Computing kpt #:   120  of   201
     total cpu time spent up to now is       44.2 secs

     Computing kpt #:   121  of   201
     total cpu time spent up to now is       44.6 secs

     Computing kpt #:   122  of   201
     total cpu time spent up to now is       44.9 secs

     Computing kpt #:   123  of   201
     total cpu time spent up to now is       45.2 secs

     Computing kpt #:   124  of   201
     total cpu time spent up to now is       45.6 secs

     Computing kpt #:   125  of   201
     total cpu time spent up to now is       45.9 secs

     Computing kpt #:   126  of   201
     total cpu time spent up to now is       46.2 secs

     Computing kpt #:   127  of   201
     total cpu time spent up to now is       46.6 secs

     Computing kpt #:   128  of   201
     total cpu time spent up to now is       47.0 secs

     Computing kpt #:   129  of   201
     total cpu time spent up to now is       47.3 secs

     Computing kpt #:   130  of   201
     total cpu time spent up to now is       47.6 secs

     Computing kpt #:   131  of   201
     total cpu time spent up to now is       47.9 secs

     Computing kpt #:   132  of   201
     total cpu time spent up to now is       48.3 secs

     Computing kpt #:   133  of   201
     total cpu time spent up to now is       48.6 secs

     Computing kpt #:   134  of   201
     total cpu time spent up to now is       48.9 secs

     Computing kpt #:   135  of   201
     total cpu time spent up to now is       49.2 secs

     Computing kpt #:   136  of   201
     total cpu time spent up to now is       49.6 secs

     Computing kpt #:   137  of   201
     total cpu time spent up to now is       49.9 secs

     Computing kpt #:   138  of   201
     total cpu time spent up to now is       50.2 secs

     Computing kpt #:   139  of   201
     total cpu time spent up to now is       50.6 secs

     Computing kpt #:   140  of   201
     total cpu time spent up to now is       50.9 secs

     Computing kpt #:   141  of   201
     total cpu time spent up to now is       51.2 secs

     Computing kpt #:   142  of   201
     total cpu time spent up to now is       51.5 secs

     Computing kpt #:   143  of   201
     total cpu time spent up to now is       51.8 secs

     Computing kpt #:   144  of   201
     total cpu time spent up to now is       52.1 secs

     Computing kpt #:   145  of   201
     total cpu time spent up to now is       52.4 secs

     Computing kpt #:   146  of   201
     total cpu time spent up to now is       52.8 secs

     Computing kpt #:   147  of   201
     total cpu time spent up to now is       53.1 secs

     Computing kpt #:   148  of   201
     total cpu time spent up to now is       53.4 secs

     Computing kpt #:   149  of   201
     total cpu time spent up to now is       53.7 secs

     Computing kpt #:   150  of   201
     total cpu time spent up to now is       54.0 secs

     Computing kpt #:   151  of   201
     total cpu time spent up to now is       54.3 secs

     Computing kpt #:   152  of   201
     total cpu time spent up to now is       54.6 secs

     Computing kpt #:   153  of   201
     total cpu time spent up to now is       54.9 secs

     Computing kpt #:   154  of   201
     total cpu time spent up to now is       55.3 secs

     Computing kpt #:   155  of   201
     total cpu time spent up to now is       55.6 secs

     Computing kpt #:   156  of   201
     total cpu time spent up to now is       55.9 secs

     Computing kpt #:   157  of   201
     total cpu time spent up to now is       56.2 secs

     Computing kpt #:   158  of   201
     total cpu time spent up to now is       56.5 secs

     Computing kpt #:   159  of   201
     total cpu time spent up to now is       56.8 secs

     Computing kpt #:   160  of   201
     total cpu time spent up to now is       57.1 secs

     Computing kpt #:   161  of   201
     total cpu time spent up to now is       57.4 secs

     Computing kpt #:   162  of   201
     total cpu time spent up to now is       57.7 secs

     Computing kpt #:   163  of   201
     total cpu time spent up to now is       58.0 secs

     Computing kpt #:   164  of   201
     total cpu time spent up to now is       58.3 secs

     Computing kpt #:   165  of   201
     total cpu time spent up to now is       58.6 secs

     Computing kpt #:   166  of   201
     total cpu time spent up to now is       58.9 secs

     Computing kpt #:   167  of   201
     total cpu time spent up to now is       59.2 secs

     Computing kpt #:   168  of   201
     total cpu time spent up to now is       59.5 secs

     Computing kpt #:   169  of   201
     total cpu time spent up to now is       59.9 secs

     Computing kpt #:   170  of   201
     total cpu time spent up to now is       60.2 secs

     Computing kpt #:   171  of   201
     total cpu time spent up to now is       60.5 secs

     Computing kpt #:   172  of   201
     total cpu time spent up to now is       60.8 secs

     Computing kpt #:   173  of   201
     total cpu time spent up to now is       61.1 secs

     Computing kpt #:   174  of   201
     total cpu time spent up to now is       61.4 secs

     Computing kpt #:   175  of   201
     total cpu time spent up to now is       61.7 secs

     Computing kpt #:   176  of   201
     total cpu time spent up to now is       62.1 secs

     Computing kpt #:   177  of   201
     total cpu time spent up to now is       62.4 secs

     Computing kpt #:   178  of   201
     total cpu time spent up to now is       62.8 secs

     Computing kpt #:   179  of   201
     total cpu time spent up to now is       63.2 secs

     Computing kpt #:   180  of   201
     total cpu time spent up to now is       63.6 secs

     Computing kpt #:   181  of   201
     total cpu time spent up to now is       64.0 secs

     Computing kpt #:   182  of   201
     total cpu time spent up to now is       64.4 secs

     Computing kpt #:   183  of   201
     total cpu time spent up to now is       64.7 secs

     Computing kpt #:   184  of   201
     total cpu time spent up to now is       65.1 secs

     Computing kpt #:   185  of   201
     total cpu time spent up to now is       65.4 secs

     Computing kpt #:   186  of   201
     total cpu time spent up to now is       65.8 secs

     Computing kpt #:   187  of   201
     total cpu time spent up to now is       66.1 secs

     Computing kpt #:   188  of   201
     total cpu time spent up to now is       66.5 secs

     Computing kpt #:   189  of   201
     total cpu time spent up to now is       66.8 secs

     Computing kpt #:   190  of   201
     total cpu time spent up to now is       67.2 secs

     Computing kpt #:   191  of   201
     total cpu time spent up to now is       67.6 secs

     Computing kpt #:   192  of   201
     total cpu time spent up to now is       67.9 secs

     Computing kpt #:   193  of   201
     total cpu time spent up to now is       68.3 secs

     Computing kpt #:   194  of   201
     total cpu time spent up to now is       68.7 secs

     Computing kpt #:   195  of   201
     total cpu time spent up to now is       69.1 secs

     Computing kpt #:   196  of   201
     total cpu time spent up to now is       69.5 secs

     Computing kpt #:   197  of   201
     total cpu time spent up to now is       69.9 secs

     Computing kpt #:   198  of   201
     total cpu time spent up to now is       70.4 secs

     Computing kpt #:   199  of   201
     total cpu time spent up to now is       70.8 secs

     Computing kpt #:   200  of   201
     total cpu time spent up to now is       71.2 secs

     Computing kpt #:   201  of   201
     total cpu time spent up to now is       71.6 secs

     ethr =  1.25E-10,  avg # of iterations = 39.1

     total cpu time spent up to now is       71.6 secs

     End of band structure calculation

          k = 0.0000 0.0000 1.0000 (  2200 PWs)   bands (ev):

    -1.7765  -1.7765   3.1828   3.1828   6.6990   6.6990  15.8334  15.8334
    16.7665  16.7665

          k = 0.0000 0.0000 0.9750 (  2200 PWs)   bands (ev):

    -1.9639  -1.5860   3.1852   3.1852   6.6581   6.7472  15.7718  15.7718
    16.8290  16.8290

          k = 0.0000 0.0000 0.9500 (  2196 PWs)   bands (ev):

    -2.1479  -1.3923   3.1925   3.1925   6.6244   6.8027  15.6204  15.6204
    16.9830  16.9830

          k = 0.0000 0.0000 0.9250 (  2192 PWs)   bands (ev):

    -2.3285  -1.1958   3.2045   3.2045   6.5977   6.8656  15.4255  15.4255
    17.1817  17.1817

          k = 0.0000 0.0000 0.9000 (  2184 PWs)   bands (ev):

    -2.5055  -0.9965   3.2214   3.2214   6.5779   6.9361  15.2113  15.2113
    17.4006  17.4007

          k = 0.0000 0.0000 0.8750 (  2168 PWs)   bands (ev):

    -2.6788  -0.7946   3.2431   3.2431   6.5650   7.0141  14.9882  14.9882
    17.2182  17.5776

          k = 0.0000 0.0000 0.8500 (  2168 PWs)   bands (ev):

    -2.8483  -0.5903   3.2696   3.2696   6.5589   7.0998  14.7607  14.7607
    17.0166  17.3388

          k = 0.0000 0.0000 0.8250 (  2176 PWs)   bands (ev):

    -3.0138  -0.3837   3.3008   3.3008   6.5593   7.1932  14.5312  14.5312
    16.8205  17.0951

          k = 0.0000 0.0000 0.8000 (  2168 PWs)   bands (ev):

[...]

    -3.4271  -0.8289   3.8663   4.5423   8.1536   9.1293   9.8855  13.9815
    14.6993  15.7031

          k =-0.5000 0.3625 0.6375 (  2176 PWs)   bands (ev):

    -3.3991  -0.8177   3.7293   4.4914   8.2485   9.1096  10.0221  13.9867
    14.5161  15.6854

          k =-0.5000 0.3500 0.6500 (  2172 PWs)   bands (ev):

    -3.3686  -0.8062   3.5919   4.4361   8.3388   9.0923  10.1730  13.9692
    14.3350  15.6954

          k =-0.5000 0.3375 0.6625 (  2172 PWs)   bands (ev):

    -3.3355  -0.7945   3.4551   4.3766   8.4246   9.0779  10.3374  13.9281
    14.1561  15.7329

          k =-0.5000 0.3250 0.6750 (  2176 PWs)   bands (ev):

    -3.2998  -0.7830   3.3200   4.3131   8.5065   9.0668  10.5141  13.8652
    13.9797  15.7948

          k =-0.5000 0.3125 0.6875 (  2178 PWs)   bands (ev):

    -3.2616  -0.7718   3.1872   4.2458   8.5849   9.0596  10.7017  13.7840
    13.8056  15.8762

          k =-0.5000 0.3000 0.7000 (  2180 PWs)   bands (ev):

    -3.2208  -0.7613   3.0577   4.1750   8.6607   9.0563  10.8991  13.6342
    13.6883  15.9718

          k =-0.5000 0.2875 0.7125 (  2180 PWs)   bands (ev):

    -3.1775  -0.7519   2.9320   4.1009   8.7345   9.0574  11.1051  13.4653
    13.5815  16.0761

          k =-0.5000 0.2750 0.7250 (  2182 PWs)   bands (ev):

    -3.1318  -0.7440   2.8110   4.0238   8.8071   9.0630  11.3187  13.2992
    13.4666  16.1844

          k =-0.5000 0.2625 0.7375 (  2182 PWs)   bands (ev):

    -3.0836  -0.7380   2.6952   3.9441   8.8789   9.0732  11.5387  13.1358
    13.3459  16.2922

          k =-0.5000 0.2500 0.7500 (  2174 PWs)   bands (ev):

    -3.0330  -0.7344   2.5854   3.8620   8.9505   9.0880  11.7644  12.9753
    13.2211  16.3962

          k =-0.5000 0.2375 0.7625 (  2196 PWs)   bands (ev):

    -2.9800  -0.7338   2.4822   3.7779   9.0222   9.1074  11.9946  12.8180
    13.0934  16.4934

          k =-0.5000 0.2250 0.7750 (  2196 PWs)   bands (ev):

    -2.9247  -0.7367   2.3864   3.6921   9.0945   9.1316  12.2278  12.6651
    12.9639  16.5819

          k =-0.5000 0.2125 0.7875 (  2196 PWs)   bands (ev):

    -2.8672  -0.7436   2.2986   3.6049   9.1604   9.1676  12.4410  12.5387
    12.8335  16.6606

          k =-0.5000 0.2000 0.8000 (  2200 PWs)   bands (ev):

    -2.8073  -0.7551   2.2194   3.5167   9.1938   9.2417  12.3530  12.7026
    12.7197  16.7289

          k =-0.5000 0.1875 0.8125 (  2196 PWs)   bands (ev):

    -2.7453  -0.7715   2.1494   3.4278   9.2316   9.3170  12.2096  12.5719
    12.9615  16.7867

          k =-0.5000 0.1750 0.8250 (  2196 PWs)   bands (ev):

    -2.6812  -0.7935   2.0890   3.3385   9.2739   9.3936  12.0674  12.4416
    13.2074  16.8344

          k =-0.5000 0.1625 0.8375 (  2198 PWs)   bands (ev):

    -2.6151  -0.8212   2.0387   3.2490   9.3204   9.4715  11.9279  12.3122
    13.4550  16.8722

          k =-0.5000 0.1500 0.8500 (  2198 PWs)   bands (ev):

    -2.5470  -0.8548   1.9986   3.1599   9.3711   9.5508  11.7916  12.1839
    13.7037  16.9005

          k =-0.5000 0.1375 0.8625 (  2194 PWs)   bands (ev):

    -2.4770  -0.8944   1.9688   3.0712   9.4259   9.6315  11.6587  12.0569
    13.9524  16.9195

          k =-0.5000 0.1250 0.8750 (  2192 PWs)   bands (ev):

    -2.4053  -0.9399   1.9492   2.9834   9.4845   9.7133  11.5295  11.9315
    14.2004  16.9291

          k =-0.5000 0.1125 0.8875 (  2196 PWs)   bands (ev):

    -2.3319  -0.9910   1.9396   2.8967   9.5469   9.7961  11.4043  11.8079
    14.4468  16.9290

          k =-0.5000 0.1000 0.9000 (  2198 PWs)   bands (ev):

    -2.2570  -1.0473   1.9395   2.8114   9.6129   9.8795  11.2837  11.6862
    14.6903  16.9187

          k =-0.5000 0.0875 0.9125 (  2194 PWs)   bands (ev):

    -2.1806  -1.1084   1.9486   2.7279   9.6822   9.9627  11.1683  11.5669
    14.9297  16.8974

          k =-0.5000 0.0750 0.9250 (  2192 PWs)   bands (ev):

    -2.1031  -1.1738   1.9663   2.6465   9.7545  10.0446  11.0596  11.4502
    15.1634  16.8641

          k =-0.5000 0.0625 0.9375 (  2190 PWs)   bands (ev):

    -2.0245  -1.2428   1.9920   2.5675   9.8295  10.1225  10.9600  11.3363
    15.3896  16.8174

          k =-0.5000 0.0500 0.9500 (  2192 PWs)   bands (ev):

    -1.9451  -1.3150   2.0252   2.4911   9.9065  10.1922  10.8742  11.2261
    15.6062  16.7557

          k =-0.5000 0.0375 0.9625 (  2188 PWs)   bands (ev):

    -1.8651  -1.3898   2.0651   2.4179   9.9847  10.2448  10.8107  11.1202
    15.8108  16.6775

          k =-0.5000 0.0250 0.9750 (  2188 PWs)   bands (ev):

    -1.7848  -1.4666   2.1113   2.3480  10.0626  10.2673  10.7826  11.0203
    16.0010  16.5811

          k =-0.5000 0.0125 0.9875 (  2182 PWs)   bands (ev):

    -1.7044  -1.5449   2.1632   2.2820  10.1373  10.2514  10.7986  10.9291
    16.1747  16.4654

          k =-0.5000 0.0000 1.0000 (  2180 PWs)   bands (ev):

    -1.6243  -1.6243   2.2203   2.2203  10.2035  10.2035  10.8519  10.8519
    16.3298  16.3298

          k =-0.5062 0.0000 0.9937 (  2180 PWs)   bands (ev):

    -1.6522  -1.5967   2.1994   2.2422  10.1672  10.2218  10.8443  10.8788
    16.2775  16.3796

          k =-0.5125 0.0000 0.9875 (  2180 PWs)   bands (ev):

    -1.6794  -1.5701   2.1791   2.2661  10.1038  10.2351  10.8655  10.9119
    16.2236  16.4256

          k =-0.5188 0.0000 0.9813 (  2184 PWs)   bands (ev):

    -1.7059  -1.5447   2.1591   2.2919  10.0214  10.2438  10.9073  10.9505
    16.1682  16.4671

          k =-0.5250 0.0000 0.9750 (  2190 PWs)   bands (ev):

    -1.7317  -1.5204   2.1397   2.3195   9.9273  10.2485  10.9625  10.9942
    16.1114  16.5034

          k =-0.5312 0.0000 0.9688 (  2190 PWs)   bands (ev):

    -1.7568  -1.4972   2.1207   2.3490   9.8263  10.2498  11.0264  11.0423
    16.0534  16.5337

          k =-0.5375 0.0000 0.9625 (  2194 PWs)   bands (ev):

    -1.7812  -1.4752   2.1022   2.3802   9.7213  10.2484  11.0941  11.0961
    15.9941  16.5571

          k =-0.5437 0.0000 0.9562 (  2194 PWs)   bands (ev):

    -1.8049  -1.4542   2.0841   2.4131   9.6141  10.2448  11.1491  11.1698
    15.9338  16.5730

          k =-0.5500 0.0000 0.9500 (  2195 PWs)   bands (ev):

    -1.8279  -1.4343   2.0665   2.4476   9.5059  10.2395  11.2068  11.2463
    15.8724  16.5805

          k =-0.5563 0.0000 0.9438 (  2195 PWs)   bands (ev):

    -1.8502  -1.4155   2.0495   2.4837   9.3974  10.2330  11.2668  11.3252
    15.8101  16.5792

          k =-0.5625 0.0000 0.9375 (  2187 PWs)   bands (ev):

    -1.8718  -1.3977   2.0329   2.5214   9.2891  10.2254  11.3287  11.4058
    15.7469  16.5689

          k =-0.5687 0.0000 0.9312 (  2187 PWs)   bands (ev):

    -1.8928  -1.3809   2.0168   2.5604   9.1813  10.2172  11.3922  11.4879
    15.6828  16.5494

          k =-0.5750 0.0000 0.9250 (  2187 PWs)   bands (ev):

    -1.9130  -1.3651   2.0012   2.6008   9.0743  10.2084  11.4571  11.5712
    15.6179  16.5210

          k =-0.5813 0.0000 0.9188 (  2187 PWs)   bands (ev):

    -1.9325  -1.3503   1.9861   2.6424   8.9683  10.1993  11.5234  11.6557
    15.5523  16.4842

          k =-0.5875 0.0000 0.9125 (  2185 PWs)   bands (ev):

    -1.9513  -1.3364   1.9716   2.6852   8.8636  10.1900  11.5907  11.7411
    15.4859  16.4395

          k =-0.5938 0.0000 0.9062 (  2185 PWs)   bands (ev):

    -1.9694  -1.3234   1.9575   2.7290   8.7603  10.1806  11.6589  11.8274
    15.4188  16.3878

          k =-0.6000 0.0000 0.9000 (  2189 PWs)   bands (ev):

    -1.9868  -1.3112   1.9440   2.7736   8.6586  10.1712  11.7280  11.9145
    15.3511  16.3298

          k =-0.6062 0.0000 0.8937 (  2188 PWs)   bands (ev):

    -2.0035  -1.2999   1.9310   2.8190   8.5585  10.1619  11.7979  12.0023
    15.2828  16.2662

          k =-0.6125 0.0000 0.8875 (  2188 PWs)   bands (ev):

    -2.0195  -1.2893   1.9185   2.8650   8.4604  10.1528  11.8684  12.0909
    15.2140  16.1977

          k =-0.6188 0.0000 0.8813 (  2188 PWs)   bands (ev):

    -2.0348  -1.2795   1.9066   2.9115   8.3642  10.1438  11.9395  12.1801
    15.1446  16.1250

          k =-0.6250 0.0000 0.8750 (  2188 PWs)   bands (ev):

    -2.0494  -1.2704   1.8952   2.9582   8.2702  10.1351  12.0111  12.2699
    15.0747  16.0487

          k =-0.6312 0.0000 0.8687 (  2188 PWs)   bands (ev):

    -2.0632  -1.2620   1.8843   3.0051   8.1786  10.1266  12.0832  12.3602
    15.0044  15.9691

          k =-0.6375 0.0000 0.8625 (  2192 PWs)   bands (ev):

    -2.0764  -1.2543   1.8740   3.0519   8.0895  10.1185  12.1557  12.4511
    14.9337  15.8869

          k =-0.6438 0.0000 0.8563 (  2192 PWs)   bands (ev):

    -2.0888  -1.2472   1.8642   3.0985   8.0030  10.1107  12.2285  12.5425
    14.8626  15.8023

          k =-0.6500 0.0000 0.8500 (  2194 PWs)   bands (ev):

    -2.1006  -1.2406   1.8550   3.1445   7.9195  10.1032  12.3015  12.6343
    14.7912  15.7158

          k =-0.6562 0.0000 0.8438 (  2194 PWs)   bands (ev):

    -2.1116  -1.2346   1.8463   3.1898   7.8391  10.0962  12.3748  12.7266
    14.7195  15.6276

          k =-0.6625 0.0000 0.8375 (  2190 PWs)   bands (ev):

    -2.1219  -1.2292   1.8381   3.2342   7.7620  10.0895  12.4481  12.8192
    14.6477  15.5380

          k =-0.6687 0.0000 0.8312 (  2190 PWs)   bands (ev):

    -2.1316  -1.2242   1.8305   3.2773   7.6884  10.0832  12.5215  12.9122
    14.5757  15.4472

          k =-0.6750 0.0000 0.8250 (  2190 PWs)   bands (ev):

    -2.1405  -1.2198   1.8235   3.3190   7.6187  10.0774  12.5949  13.0054
    14.5038  15.3554

          k =-0.6813 0.0000 0.8188 (  2182 PWs)   bands (ev):

    -2.1486  -1.2157   1.8170   3.3589   7.5531  10.0720  12.6680  13.0988
    14.4319  15.2630

          k =-0.6875 0.0000 0.8125 (  2178 PWs)   bands (ev):

    -2.1561  -1.2121   1.8111   3.3968   7.4918  10.0670  12.7408  13.1923
    14.3602  15.1700

          k =-0.6937 0.0000 0.8062 (  2180 PWs)   bands (ev):

    -2.1629  -1.2089   1.8058   3.4322   7.4352  10.0625  12.8131  13.2859
    14.2890  15.0766

          k =-0.7000 0.0000 0.8000 (  2180 PWs)   bands (ev):

    -2.1690  -1.2061   1.8010   3.4650   7.3835  10.0584  12.8846  13.3792
    14.2185  14.9832

          k =-0.7063 0.0000 0.7938 (  2179 PWs)   bands (ev):

    -2.1743  -1.2037   1.7967   3.4949   7.3370  10.0548  12.9549  13.4722
    14.1491  14.8900

          k =-0.7125 0.0000 0.7875 (  2179 PWs)   bands (ev):

    -2.1789  -1.2016   1.7931   3.5215   7.2960  10.0517  13.0234  13.5645
    14.0813  14.7975

          k =-0.7188 0.0000 0.7812 (  2173 PWs)   bands (ev):

    -2.1829  -1.1998   1.7900   3.5445   7.2609  10.0490  13.0894  13.6554
    14.0159  14.7063

          k =-0.7250 0.0000 0.7750 (  2181 PWs)   bands (ev):

    -2.1861  -1.1984   1.7874   3.5637   7.2317  10.0469  13.1514  13.7440
    13.9544  14.6174

          k =-0.7312 0.0000 0.7687 (  2182 PWs)   bands (ev):

    -2.1886  -1.1973   1.7854   3.5789   7.2087  10.0452  13.2073  13.8282
    13.8990  14.5328

          k =-0.7375 0.0000 0.7625 (  2180 PWs)   bands (ev):

    -2.1903  -1.1966   1.7840   3.5900   7.1922  10.0439  13.2535  13.8530
    13.9038  14.4570

          k =-0.7438 0.0000 0.7563 (  2171 PWs)   bands (ev):

    -2.1914  -1.1961   1.7832   3.5966   7.1822  10.0432  13.2851  13.8217
    13.9615  14.3992

          k =-0.7500 0.0000 0.7500 (  2171 PWs)   bands (ev):

    -2.1918  -1.1959   1.7829   3.5988   7.1789  10.0430  13.2964  13.8103
    13.9845  14.3761

          k =-0.7312 0.0000 0.7312 (  2181 PWs)   bands (ev):

    -2.2788  -1.1059   1.7278   3.6612   7.2509  10.4161  13.0723  13.5780
    13.8033  14.1816

          k =-0.7125 0.0000 0.7125 (  2181 PWs)   bands (ev):

    -2.3753  -1.0094   1.6906   3.7274   7.3272  10.7936  12.8519  13.3540
    13.6243  13.9926

          k =-0.6937 0.0000 0.6937 (  2181 PWs)   bands (ev):

    -2.4806  -0.9066   1.6710   3.7971   7.4076  11.1715  12.6354  13.1414
    13.4482  13.8095

          k =-0.6750 0.0000 0.6750 (  2185 PWs)   bands (ev):

    -2.5938  -0.7974   1.6686   3.8702   7.4917  11.5410  12.4231  12.9484
    13.2758  13.6327

          k =-0.6562 0.0000 0.6562 (  2185 PWs)   bands (ev):

    -2.7138  -0.6818   1.6825   3.9465   7.5792  11.8744  12.2155  12.8018
    13.1076  13.4628

          k =-0.6375 0.0000 0.6375 (  2181 PWs)   bands (ev):

    -2.8395  -0.5599   1.7120   4.0256   7.6698  12.0125  12.0769  12.7957
    12.9442  13.3002

          k =-0.6188 0.0000 0.6188 (  2185 PWs)   bands (ev):

    -2.9698  -0.4318   1.7559   4.1074   7.7630  11.8145  12.0530  12.7863
    13.0243  13.1451

          k =-0.6000 0.0000 0.6000 (  2171 PWs)   bands (ev):

    -3.1034  -0.2973   1.8134   4.1915   7.8583  11.6215  11.9154  12.6343
    12.9983  13.3737

          k =-0.5813 0.0000 0.5813 (  2179 PWs)   bands (ev):

    -3.2393  -0.1567   1.8834   4.2777   7.9551  11.4338  11.7476  12.4890
    12.8599  13.7583

          k =-0.5625 0.0000 0.5625 (  2181 PWs)   bands (ev):

    -3.3764  -0.0099   1.9649   4.3655   8.0527  11.2513  11.5726  12.3510
    12.7305  14.1530

          k =-0.5437 0.0000 0.5437 (  2179 PWs)   bands (ev):

    -3.5140   0.1431   2.0572   4.4546   8.1503  11.0743  11.3974  12.2209
    12.6104  14.5472

          k =-0.5250 0.0000 0.5250 (  2179 PWs)   bands (ev):

    -3.6511   0.3021   2.1593   4.5446   8.2470  10.9027  11.2249  12.0996
    12.5003  14.9333

          k =-0.5062 0.0000 0.5062 (  2181 PWs)   bands (ev):

    -3.7870   0.4672   2.2705   4.6351   8.3417  10.7368  11.0563  11.9879
    12.4004  15.3032

          k =-0.4875 0.0000 0.4875 (  2175 PWs)   bands (ev):

    -3.9211   0.6382   2.3901   4.7255   8.4332  10.5765  10.8922  11.8864
    12.3112  15.6466

          k =-0.4688 0.0000 0.4688 (  2179 PWs)   bands (ev):

    -4.0529   0.8152   2.5175   4.8155   8.5202  10.4219  10.7331  11.7962
    12.2333  15.9499

          k =-0.4500 0.0000 0.4500 (  2179 PWs)   bands (ev):

    -4.1818   0.9980   2.6520   4.9044   8.6014  10.2730  10.5790  11.7179
    12.1670  16.1978

          k =-0.4312 0.0000 0.4313 (  2179 PWs)   bands (ev):

    -4.3075   1.1866   2.7931   4.9919   8.6753  10.1300  10.4303  11.6522
    12.1128  16.3765

          k =-0.4125 0.0000 0.4125 (  2169 PWs)   bands (ev):

    -4.4295   1.3809   2.9403   5.0774   8.7406   9.9928  10.2869  11.5993
    12.0712  16.4801

          k =-0.3937 0.0000 0.3937 (  2167 PWs)   bands (ev):

    -4.5477   1.5807   3.0928   5.1603   8.7962   9.8615  10.1488  11.5589
    12.0426  16.3571

          k =-0.3750 0.0000 0.3750 (  2175 PWs)   bands (ev):

    -4.6616   1.7860   3.2503   5.2403   8.8413   9.7361  10.0160  11.5302
    12.0272  15.9642

          k =-0.3562 0.0000 0.3562 (  2175 PWs)   bands (ev):

    -4.7710   1.9966   3.4121   5.3168   8.8755   9.6167   9.8887  11.5111
    12.0254  15.5829

          k =-0.3375 0.0000 0.3375 (  2153 PWs)   bands (ev):

    -4.8757   2.2124   3.5776   5.3895   8.8989   9.5033   9.7666  11.4984
    12.0374  15.2167

          k =-0.3187 0.0000 0.3187 (  2157 PWs)   bands (ev):

    -4.9756   2.4331   3.7462   5.4581   8.9120   9.3959   9.6497  11.4872
    12.0633  14.8696

          k =-0.3000 0.0000 0.3000 (  2161 PWs)   bands (ev):

    -5.0705   2.6586   3.9172   5.5221   8.9158   9.2945   9.5381  11.4710
    12.1029  14.5471

          k =-0.2812 0.0000 0.2812 (  2153 PWs)   bands (ev):

    -5.1601   2.8886   4.0898   5.5814   8.9116   9.1992   9.4316  11.4411
    12.1563  14.2559

          k =-0.2625 0.0000 0.2625 (  2157 PWs)   bands (ev):

    -5.2445   3.1228   4.2633   5.6360   8.9008   9.1100   9.3300  11.3880
    12.2229  14.0040

          k =-0.2437 0.0000 0.2437 (  2153 PWs)   bands (ev):

    -5.3235   3.3607   4.4366   5.6857   8.8847   9.0268   9.2335  11.3020
    12.3024  13.7988

          k =-0.2250 0.0000 0.2250 (  2155 PWs)   bands (ev):

    -5.3969   3.6018   4.6087   5.7305   8.8647   8.9497   9.1418  11.1764
    12.3939  13.6452

          k =-0.2062 0.0000 0.2062 (  2151 PWs)   bands (ev):

    -5.4647   3.8456   4.7784   5.7706   8.8419   8.8788   9.0550  11.0104
    12.4965  13.5425

          k =-0.1875 0.0000 0.1875 (  2151 PWs)   bands (ev):

    -5.5269   4.0910   4.9444   5.8061   8.8140   8.8172   8.9730  10.8088
    12.6089  13.4843

          k =-0.1687 0.0000 0.1687 (  2153 PWs)   bands (ev):

    -5.5833   4.3371   5.1051   5.8372   8.7553   8.7915   8.8959  10.5806
    12.7295  13.4607

          k =-0.1500 0.0000 0.1500 (  2153 PWs)   bands (ev):

    -5.6340   4.5822   5.2588   5.8641   8.7028   8.7650   8.8238  10.3361
    12.8562  13.4616

          k =-0.1312 0.0000 0.1312 (  2149 PWs)   bands (ev):

    -5.6787   4.8243   5.4034   5.8870   8.6564   8.7380   8.7572  10.0851
    12.9864  13.4778

          k =-0.1125 0.0000 0.1125 (  2153 PWs)   bands (ev):

    -5.7176   5.0602   5.5367   5.9063   8.6162   8.6963   8.7100   9.8371
    13.1168  13.5023

          k =-0.0938 0.0000 0.0938 (  2149 PWs)   bands (ev):

    -5.7506   5.2859   5.6562   5.9222   8.5822   8.6420   8.6799   9.6021
    13.2433  13.5298

          k =-0.0750 0.0000 0.0750 (  2151 PWs)   bands (ev):

    -5.7776   5.4951   5.7592   5.9348   8.5544   8.5952   8.6456   9.3915
    13.3605  13.5564

          k =-0.0562 0.0000 0.0562 (  2135 PWs)   bands (ev):

    -5.7986   5.6790   5.8431   5.9444   8.5328   8.5570   8.6051   9.2183
    13.4627  13.5794

          k =-0.0375 0.0000 0.0375 (  2127 PWs)   bands (ev):

    -5.8137   5.8261   5.9053   5.9512   8.5173   8.5285   8.5598   9.0942
    13.5426  13.5969

          k =-0.0187 0.0000 0.0187 (  2119 PWs)   bands (ev):

    -5.8227   5.9226   5.9436   5.9552   8.5080   8.5109   8.5208   9.0230
    13.5939  13.6079

          k = 0.0000 0.0000 0.0000 (  2109 PWs)   bands (ev):

    -5.8257   5.9565   5.9565   5.9565   8.5049   8.5049   8.5049   9.0004
    13.6116  13.6116

     Writing all to output data dir ./SCRATCH/silicon.save/

     init_run     :      0.06s CPU      0.09s WALL (       1 calls)
     electrons    :     70.81s CPU     71.51s WALL (       1 calls)

     Called by init_run:
     wfcinit      :      0.00s CPU      0.00s WALL (       1 calls)
     wfcinit:wfcr :      2.38s CPU      2.25s WALL (     201 calls)
     potinit      :      0.00s CPU      0.03s WALL (       1 calls)
     hinit0       :      0.02s CPU      0.02s WALL (       1 calls)

     Called by electrons:
     c_bands      :     70.81s CPU     71.51s WALL (       1 calls)
     v_of_rho     :      0.00s CPU      0.03s WALL (       1 calls)
     v_h          :      0.00s CPU      0.00s WALL (       1 calls)
     v_xc         :      0.00s CPU      0.03s WALL (       1 calls)

     Called by c_bands:
     init_us_2    :      0.02s CPU      0.05s WALL (     201 calls)
     init_us_2:cp :      0.02s CPU      0.05s WALL (     201 calls)
     cegterg      :     68.20s CPU     68.80s WALL (     489 calls)

     Called by sum_band:

     Called by *egterg:
     cdiaghg      :      0.69s CPU      0.68s WALL (    8051 calls)
     cegterg:over :      3.88s CPU      4.25s WALL (    7850 calls)
     cegterg:upda :      2.08s CPU      1.90s WALL (    7850 calls)
     cegterg:last :      3.30s CPU      3.49s WALL (    5436 calls)
     h_psi        :     59.61s CPU     59.58s WALL (    8540 calls)
     g_psi        :      0.31s CPU      0.31s WALL (    7850 calls)

     Called by h_psi:
     h_psi:calbec :      2.12s CPU      2.11s WALL (    8540 calls)
     vloc_psi     :     55.64s CPU     55.73s WALL (    8540 calls)
     add_vuspsi   :      1.62s CPU      1.54s WALL (    8540 calls)

     General routines
     calbec       :      2.12s CPU      2.08s WALL (    8540 calls)
     fft          :      0.00s CPU      0.01s WALL (      10 calls)
     fftw         :     50.59s CPU     51.10s WALL (  114180 calls)
     davcio       :      0.02s CPU      0.16s WALL (     402 calls)


     PWSCF        :   1m10.92s CPU   1m11.73s WALL


   This run was terminated on:  11:44:51   9Jun2024            

=------------------------------------------------------------------------------=
   JOB DONE.
=------------------------------------------------------------------------------=
