
     Program BANDS v.7.2 starts on  9Jun2024 at 11:45:19 

     This program is part of the open-source Quantum ESPRESSO suite
     for quantum simulation of materials; please cite
         "P. Giannozzi et al., J. Phys.:Condens. Matter 21 395502 (2009);
         "P. Giannozzi et al., J. Phys.:Condens. Matter 29 465901 (2017);
         "P. Giannozzi et al., J. Chem. Phys. 152 154105 (2020);
          URL http://www.quantum-espresso.org", 
     in publications or presentations arising from this work. More details at
     http://www.quantum-espresso.org/quote

     Serial version
     8473 MiB available memory on the printing compute node when the environment starts


     Reading xml data from directory:

     ./SCRATCH/silicon.save/

     IMPORTANT: XC functional enforced from input :
     Exchange-correlation= PBE
                           (   1   4   3   4   0   0   0)
     Any further DFT definition will be discarded
     Please, verify this is what you really want


     G-vector sticks info
     --------------------
     sticks:   dense  smooth     PW     G-vecs:    dense   smooth      PW
     Sum         889     889    253                17453    17453    2741

     Using Slab Decomposition

     Reading collected, re-writing distributed wavefunctions
     high-symmetry point:  0.0000 0.0000 1.0000   x coordinate   0.0000
     high-symmetry point:  0.0000 0.0000 0.0000   x coordinate   1.0000
     high-symmetry point: -0.5000 0.5000 0.5000   x coordinate   1.8660
     high-symmetry point: -0.5000 0.0000 1.0000   x coordinate   2.5731
     high-symmetry point: -0.7500 0.0000 0.7500   x coordinate   2.9267
     high-symmetry point:  0.0000 0.0000 0.0000   x coordinate   3.9873

     Plottable bands (eV) written to file bands_silicon.dat.gnu
     Bands written to file bands_silicon.dat

 **************************************************************************

                    xk=(   0.00000,   0.00000,   1.00000  )

     zone border point and non-symmorphic group 
     symmetry decomposition not available

 **************************************************************************

 **************************************************************************

                    xk=(   0.00000,   0.00000,   0.97500  )

     point group C_4v (4mm) 
     there are  5 classes
     the character table:

       E     2C4   C2    2s_v  2s_d 
A_1    1.00  1.00  1.00  1.00  1.00
A_2    1.00  1.00  1.00 -1.00 -1.00
B_1    1.00 -1.00  1.00  1.00 -1.00
B_2    1.00 -1.00  1.00 -1.00  1.00
E      2.00  0.00 -2.00  0.00  0.00

     the symmetry operations in each class and the name of the first element:

     E        1
                                                                 
     2C4      3    4
                                                                 
     C2       2
                                                                 
     2s_v     5    6
                                                                 
     2s_d     7    8
                                                                 

     Band symmetry, C_4v (4mm)  point group:

     e(  1 -  1) =     -1.96390  eV     1   --> A_1  G_1 D_1   
     e(  2 -  2) =     -1.58595  eV     1   --> B_2  G_4 D_2'  
     e(  3 -  4) =      3.18522  eV     2   --> E    G_5 D_5   
     e(  5 -  5) =      6.65810  eV     1   --> A_1  G_1 D_1   
     e(  6 -  6) =      6.74716  eV     1   --> B_2  G_4 D_2'  
     e(  7 -  8) =     15.77184  eV     2   --> E    G_5 D_5   
     e(  9 - 10) =     16.82897  eV     2   --> E    G_5 D_5   

 **************************************************************************

 **************************************************************************

                    xk=(   0.00000,   0.00000,   0.95000  )

     Band symmetry, C_4v (4mm)  point group:

     e(  1 -  1) =     -2.14795  eV     1   --> A_1  G_1 D_1   
     e(  2 -  2) =     -1.39232  eV     1   --> B_2  G_4 D_2'  
     e(  3 -  4) =      3.19246  eV     2   --> E    G_5 D_5   
     e(  5 -  5) =      6.62435  eV     1   --> A_1  G_1 D_1   
     e(  6 -  6) =      6.80267  eV     1   --> B_2  G_4 D_2'  
     e(  7 -  8) =     15.62038  eV     2   --> E    G_5 D_5   
     e(  9 - 10) =     16.98296  eV     2   --> E    G_5 D_5   

 **************************************************************************

 **************************************************************************

                    xk=(   0.00000,   0.00000,   0.92500  )

     Band symmetry, C_4v (4mm)  point group:

     e(  1 -  1) =     -2.32853  eV     1   --> A_1  G_1 D_1   
     e(  2 -  2) =     -1.19579  eV     1   --> B_2  G_4 D_2'  
     e(  3 -  4) =      3.20453  eV     2   --> E    G_5 D_5   
     e(  5 -  5) =      6.59767  eV     1   --> A_1  G_1 D_1   
     e(  6 -  6) =      6.86562  eV     1   --> B_2  G_4 D_2'  
     e(  7 -  8) =     15.42554  eV     2   --> E    G_5 D_5   
     e(  9 - 10) =     17.18169  eV     2   --> E    G_5 D_5   

 **************************************************************************

 **************************************************************************

                    xk=(   0.00000,   0.00000,   0.90000  )

     Band symmetry, C_4v (4mm)  point group:

     e(  1 -  1) =     -2.50553  eV     1   --> A_1  G_1 D_1   
     e(  2 -  2) =     -0.99650  eV     1   --> B_2  G_4 D_2'  
     e(  3 -  4) =      3.22140  eV     2   --> E    G_5 D_5   
     e(  5 -  5) =      6.57794  eV     1   --> A_1  G_1 D_1   
     e(  6 -  6) =      6.93609  eV     1   --> B_2  G_4 D_2'  
     e(  7 -  8) =     15.21135  eV     2   --> E    G_5 D_5   
     e(  9 - 10) =     17.40063  eV     2   -->   ?

 **************************************************************************

 **************************************************************************

                    xk=(   0.00000,   0.00000,   0.87500  )

     Band symmetry, C_4v (4mm)  point group:

     e(  1 -  1) =     -2.67882  eV     1   --> A_1  G_1 D_1   
     e(  2 -  2) =     -0.79461  eV     1   --> B_2  G_4 D_2'  
     e(  3 -  4) =      3.24308  eV     2   --> E    G_5 D_5   
     e(  5 -  5) =      6.56504  eV     1   --> A_1  G_1 D_1   
     e(  6 -  6) =      7.01414  eV     1   --> B_2  G_4 D_2'  
     e(  7 -  8) =     14.98818  eV     2   --> E    G_5 D_5   
     e(  9 -  9) =     17.21822  eV     1   --> A_2  G_2 D_1'  
     e( 10 - 10) =     17.57759  eV     1   --> B_2  G_4 D_2'  

 **************************************************************************

 **************************************************************************

                    xk=(   0.00000,   0.00000,   0.85000  )

     Band symmetry, C_4v (4mm)  point group:

     e(  1 -  1) =     -2.84829  eV     1   --> A_1  G_1 D_1   
     e(  2 -  2) =     -0.59029  eV     1   --> B_2  G_4 D_2'  
     e(  3 -  4) =      3.26955  eV     2   --> E    G_5 D_5   
     e(  5 -  5) =      6.55886  eV     1   --> A_1  G_1 D_1   
     e(  6 -  6) =      7.09985  eV     1   --> B_2  G_4 D_2'  
     e(  7 -  8) =     14.76066  eV     2   --> E    G_5 D_5   
     e(  9 -  9) =     17.01656  eV     1   --> A_2  G_2 D_1'  
     e( 10 - 10) =     17.33884  eV     1   --> B_2  G_4 D_2'  

 **************************************************************************

 **************************************************************************

                    xk=(   0.00000,   0.00000,   0.82500  )

     Band symmetry, C_4v (4mm)  point group:

     e(  1 -  1) =     -3.01383  eV     1   --> A_1  G_1 D_1   
     e(  2 -  2) =     -0.38369  eV     1   --> B_2  G_4 D_2'  
     e(  3 -  4) =      3.30078  eV     2   --> E    G_5 D_5   
     e(  5 -  5) =      6.55928  eV     1   --> A_1  G_1 D_1   
     e(  6 -  6) =      7.19324  eV     1   --> B_2  G_4 D_2'  
     e(  7 -  8) =     14.53117  eV     2   --> E    G_5 D_5   
     e(  9 -  9) =     16.82055  eV     1   --> A_2  G_2 D_1'  
     e( 10 - 10) =     17.09507  eV     1   --> B_2  G_4 D_2'  

 **************************************************************************

 **************************************************************************

                    xk=(   0.00000,   0.00000,   0.80000  )

     Band symmetry, C_4v (4mm)  point group:

     e(  1 -  1) =     -3.17533  eV     1   --> A_1  G_1 D_1   
     e(  2 -  2) =     -0.17498  eV     1   --> B_2  G_4 D_2'  
     e(  3 -  4) =      3.33676  eV     2   --> E    G_5 D_5   
     e(  5 -  5) =      6.56619  eV     1   --> A_1  G_1 D_1   
     e(  6 -  6) =      7.29437  eV     1   --> B_2  G_4 D_2'  
     e(  7 -  8) =     14.30102  eV     2   --> E    G_5 D_5   
     e(  9 -  9) =     16.63023  eV     1   --> A_2  G_2 D_1'  
     e( 10 - 10) =     16.84694  eV     1   --> B_2  G_4 D_2'  

 **************************************************************************

 **************************************************************************

                    xk=(   0.00000,   0.00000,   0.77500  )

     Band symmetry, C_4v (4mm)  point group:

     e(  1 -  1) =     -3.33271  eV     1   --> A_1  G_1 D_1   
     e(  2 -  2) =      0.03568  eV     1   --> B_2  G_4 D_2'  
     e(  3 -  4) =      3.37745  eV     2   --> E    G_5 D_5   
     e(  5 -  5) =      6.57944  eV     1   --> A_1  G_1 D_1   
     e(  6 -  6) =      7.40323  eV     1   --> B_2  G_4 D_2'  
     e(  7 -  8) =     14.07090  eV     2   --> E    G_5 D_5   
     e(  9 -  9) =     16.44559  eV     1   --> A_2  G_2 D_1'  
     e( 10 - 10) =     16.59504  eV     1   --> B_2  G_4 D_2'  

 **************************************************************************

 **************************************************************************

                    xk=(   0.00000,   0.00000,   0.75000  )

     Band symmetry, C_4v (4mm)  point group:

     e(  1 -  1) =     -3.48586  eV     1   --> A_1  G_1 D_1   
     e(  2 -  2) =      0.24810  eV     1   --> B_2  G_4 D_2'  
     e(  3 -  4) =      3.42283  eV     2   --> E    G_5 D_5   
     e(  5 -  5) =      6.59891  eV     1   --> A_1  G_1 D_1   
     e(  6 -  6) =      7.51982  eV     1   --> B_2  G_4 D_2'  
     e(  7 -  8) =     13.84132  eV     2   --> E    G_5 D_5   
     e(  9 -  9) =     16.26666  eV     1   --> A_2  G_2 D_1'  
     e( 10 - 10) =     16.33991  eV     1   --> B_2  G_4 D_2'  

 **************************************************************************

 **************************************************************************

                    xk=(   0.00000,   0.00000,   0.72500  )

     Band symmetry, C_4v (4mm)  point group:

     e(  1 -  1) =     -3.63471  eV     1   --> A_1  G_1 D_1   
     e(  2 -  2) =      0.46212  eV     1   --> B_2  G_4 D_2'  
     e(  3 -  4) =      3.47285  eV     2   --> E    G_5 D_5   
     e(  5 -  5) =      6.62446  eV     1   --> A_1  G_1 D_1   
     e(  6 -  6) =      7.64406  eV     1   --> B_2  G_4 D_2'  
     e(  7 -  8) =     13.61250  eV     2   --> E    G_5 D_5   
     e(  9 -  9) =     16.08205  eV     1   --> B_2  G_4 D_2'  
     e( 10 - 10) =     16.09340  eV     1   --> A_2  G_2 D_1'  

 **************************************************************************

 **************************************************************************

                    xk=(   0.00000,   0.00000,   0.70000  )

     Band symmetry, C_4v (4mm)  point group:

     e(  1 -  1) =     -3.77917  eV     1   --> A_1  G_1 D_1   
     e(  2 -  2) =      0.67757  eV     1   --> B_2  G_4 D_2'  
     e(  3 -  4) =      3.52747  eV     2   --> E    G_5 D_5   
     e(  5 -  5) =      6.65593  eV     1   --> A_1  G_1 D_1   
     e(  6 -  6) =      7.77590  eV     1   --> B_2  G_4 D_2'  
     e(  7 -  8) =     13.38469  eV     2   --> E    G_5 D_5   
     e(  9 -  9) =     15.82202  eV     1   --> B_2  G_4 D_2'  
     e( 10 - 10) =     15.92595  eV     1   --> A_2  G_2 D_1'  

 **************************************************************************

 **************************************************************************

                    xk=(   0.00000,   0.00000,   0.67500  )

     Band symmetry, C_4v (4mm)  point group:

     e(  1 -  1) =     -3.91915  eV     1   --> A_1  G_1 D_1   
     e(  2 -  2) =      0.89428  eV     1   --> B_2  G_4 D_2'  
     e(  3 -  4) =      3.58664  eV     2   --> E    G_5 D_5   
     e(  5 -  5) =      6.69318  eV     1   --> A_1  G_1 D_1   
     e(  6 -  6) =      7.91517  eV     1   --> B_2  G_4 D_2'  
     e(  7 -  8) =     13.15801  eV     2   --> E    G_5 D_5   
     e(  9 -  9) =     15.56033  eV     1   --> B_2  G_4 D_2'  
     e( 10 - 10) =     15.76425  eV     1   --> A_2  G_2 D_1'  

 **************************************************************************

 **************************************************************************

                    xk=(   0.00000,   0.00000,   0.65000  )

     Band symmetry, C_4v (4mm)  point group:

     e(  1 -  1) =     -4.05460  eV     1   --> A_1  G_1 D_1   
     e(  2 -  2) =      1.11209  eV     1   --> B_2  G_4 D_2'  
     e(  3 -  4) =      3.65031  eV     2   --> E    G_5 D_5   
     e(  5 -  5) =      6.73604  eV     1   --> A_1  G_1 D_1   
     e(  6 -  6) =      8.06171  eV     1   --> B_2  G_4 D_2'  
     e(  7 -  8) =     12.93258  eV     2   --> E    G_5 D_5   
     e(  9 -  9) =     15.29755  eV     1   --> B_2  G_4 D_2'  
     e( 10 - 10) =     15.60833  eV     1   --> A_2  G_2 D_1'  

 **************************************************************************

 **************************************************************************

                    xk=(   0.00000,   0.00000,   0.62500  )

     Band symmetry, C_4v (4mm)  point group:

     e(  1 -  1) =     -4.18543  eV     1   --> A_1  G_1 D_1   
     e(  2 -  2) =      1.33082  eV     1   --> B_2  G_4 D_2'  
     e(  3 -  4) =      3.71842  eV     2   --> E    G_5 D_5   
     e(  5 -  5) =      6.78434  eV     1   --> A_1  G_1 D_1   
     e(  6 -  6) =      8.21526  eV     1   --> B_2  G_4 D_2'  
     e(  7 -  8) =     12.70849  eV     2   --> E    G_5 D_5   
     e(  9 -  9) =     15.03430  eV     1   --> B_2  G_4 D_2'  
     e( 10 - 10) =     15.45819  eV     1   --> A_2  G_2 D_1'  

 **************************************************************************

 **************************************************************************

                    xk=(   0.00000,   0.00000,   0.60000  )

     Band symmetry, C_4v (4mm)  point group:

     e(  1 -  1) =     -4.31158  eV     1   --> A_1  G_1 D_1   
     e(  2 -  2) =      1.55032  eV     1   --> B_2  G_4 D_2'  
     e(  3 -  4) =      3.79088  eV     2   --> E    G_5 D_5   
     e(  5 -  5) =      6.83787  eV     1   --> A_1  G_1 D_1   
     e(  6 -  6) =      8.37539  eV     1   --> B_2  G_4 D_2'  
     e(  7 -  8) =     12.48582  eV     2   --> E    G_5 D_5   
     e(  9 -  9) =     14.77125  eV     1   --> B_2  G_4 D_2'  
     e( 10 - 10) =     15.31390  eV     1   --> A_2  G_2 D_1'  

 **************************************************************************

 **************************************************************************

                    xk=(   0.00000,   0.00000,   0.57500  )

     Band symmetry, C_4v (4mm)  point group:

     e(  1 -  1) =     -4.43300  eV     1   --> A_1  G_1 D_1   
     e(  2 -  2) =      1.77041  eV     1   --> B_2  G_4 D_2'  
     e(  3 -  4) =      3.86761  eV     2   --> E    G_5 D_5   
     e(  5 -  5) =      6.89642  eV     1   --> A_1  G_1 D_1   
     e(  6 -  6) =      8.54166  eV     1   --> B_2  G_4 D_2'  
     e(  7 -  8) =     12.26465  eV     2   --> E    G_5 D_5   
     e(  9 -  9) =     14.50918  eV     1   --> B_2  G_4 D_2'  
     e( 10 - 10) =     15.17538  eV     1   --> A_2  G_2 D_1'  

 **************************************************************************

 **************************************************************************

                    xk=(   0.00000,   0.00000,   0.55000  )

     Band symmetry, C_4v (4mm)  point group:

     e(  1 -  1) =     -4.54962  eV     1   --> A_1  G_1 D_1   
     e(  2 -  2) =      1.99095  eV     1   --> B_2  G_4 D_2'  
     e(  3 -  4) =      3.94851  eV     2   --> E    G_5 D_5   
     e(  5 -  5) =      6.95978  eV     1   --> A_1  G_1 D_1   
     e(  6 -  6) =      8.71339  eV     1   --> B_2  G_4 D_2'  
     e(  7 -  8) =     12.04508  eV     2   --> E    G_5 D_5   
     e(  9 -  9) =     14.24902  eV     1   --> B_2  G_4 D_2'  
     e( 10 - 10) =     15.04268  eV     1   --> A_2  G_2 D_1'  

 **************************************************************************

 **************************************************************************

                    xk=(   0.00000,   0.00000,   0.52500  )

     Band symmetry, C_4v (4mm)  point group:

     e(  1 -  1) =     -4.66140  eV     1   --> A_1  G_1 D_1   
     e(  2 -  2) =      2.21175  eV     1   --> B_2  G_4 D_2'  
     e(  3 -  4) =      4.03348  eV     2   --> E    G_5 D_5   
     e(  5 -  5) =      7.02767  eV     1   --> A_1  G_1 D_1   
     e(  6 -  6) =      8.88969  eV     1   --> B_2  G_4 D_2'  
     e(  7 -  8) =     11.82721  eV     2   --> E    G_5 D_5   
     e(  9 -  9) =     13.99187  eV     1   --> B_2  G_4 D_2'  
     e( 10 - 10) =     14.91581  eV     1   --> A_2  G_2 D_1'  

 **************************************************************************

 **************************************************************************

                    xk=(   0.00000,   0.00000,   0.50000  )

     Band symmetry, C_4v (4mm)  point group:

     e(  1 -  1) =     -4.76828  eV     1   --> A_1  G_1 D_1   
     e(  2 -  2) =      2.43267  eV     1   --> B_2  G_4 D_2'  
     e(  3 -  4) =      4.12238  eV     2   --> E    G_5 D_5   
     e(  5 -  5) =      7.09983  eV     1   --> A_1  G_1 D_1   
     e(  6 -  6) =      9.06934  eV     1   --> B_2  G_4 D_2'  
     e(  7 -  8) =     11.61121  eV     2   --> E    G_5 D_5   
     e(  9 -  9) =     13.73914  eV     1   --> B_2  G_4 D_2'  
     e( 10 - 10) =     14.79479  eV     1   --> A_2  G_2 D_1'  

 **************************************************************************

 **************************************************************************

                    xk=(   0.00000,   0.00000,   0.47500  )

     Band symmetry, C_4v (4mm)  point group:

     e(  1 -  1) =     -4.87022  eV     1   --> A_1  G_1 D_1   
     e(  2 -  2) =      2.65351  eV     1   --> B_2  G_4 D_2'  
     e(  3 -  4) =      4.21507  eV     2   --> E    G_5 D_5   
     e(  5 -  5) =      7.17594  eV     1   --> A_1  G_1 D_1   
     e(  6 -  6) =      9.25066  eV     1   --> B_2  G_4 D_2'  
     e(  7 -  8) =     11.39722  eV     2   --> E    G_5 D_5   
     e(  9 -  9) =     13.49260  eV     1   --> B_2  G_4 D_2'  
     e( 10 - 10) =     14.67962  eV     1   --> A_2  G_2 D_1'  

 **************************************************************************

 **************************************************************************

                    xk=(   0.00000,   0.00000,   0.45000  )

     Band symmetry, C_4v (4mm)  point group:

     e(  1 -  1) =     -4.96717  eV     1   --> A_1  G_1 D_1   
     e(  2 -  2) =      2.87410  eV     1   --> B_2  G_4 D_2'  
     e(  3 -  4) =      4.31138  eV     2   --> E    G_5 D_5   
     e(  5 -  5) =      7.25567  eV     1   --> A_1  G_1 D_1   
     e(  6 -  6) =      9.43133  eV     1   --> B_2  G_4 D_2'  
     e(  7 -  8) =     11.18546  eV     2   --> E    G_5 D_5   
     e(  9 -  9) =     13.25470  eV     1   --> B_2  G_4 D_2'  
     e( 10 - 10) =     14.57033  eV     1   --> A_2  G_2 D_1'  

 **************************************************************************

 **************************************************************************

                    xk=(   0.00000,   0.00000,   0.42500  )

     Band symmetry, C_4v (4mm)  point group:

     e(  1 -  1) =     -5.05909  eV     1   --> A_1  G_1 D_1   
     e(  2 -  2) =      3.09422  eV     1   --> B_2  G_4 D_2'  
     e(  3 -  4) =      4.41109  eV     2   --> E    G_5 D_5   
     e(  5 -  5) =      7.33860  eV     1   --> A_1  G_1 D_1   
     e(  6 -  6) =      9.60800  eV     1   --> B_2  G_4 D_2'  
     e(  7 -  8) =     10.97610  eV     2   --> E    G_5 D_5   
     e(  9 -  9) =     13.02876  eV     1   --> B_2  G_4 D_2'  
     e( 10 - 10) =     14.46689  eV     1   --> A_2  G_2 D_1'  

 **************************************************************************

 **************************************************************************

                    xk=(   0.00000,   0.00000,   0.40000  )

     Band symmetry, C_4v (4mm)  point group:

     e(  1 -  1) =     -5.14594  eV     1   --> A_1  G_1 D_1   
     e(  2 -  2) =      3.31364  eV     1   --> B_2  G_4 D_2'  
     e(  3 -  4) =      4.51397  eV     2   --> E    G_5 D_5   
     e(  5 -  5) =      7.42431  eV     1   --> A_1  G_1 D_1   
     e(  6 -  6) =      9.77588  eV     1   --> B_2  G_4 D_2'  
     e(  7 -  8) =     10.76945  eV     2   --> E    G_5 D_5   
     e(  9 -  9) =     12.81954  eV     1   --> B_2  G_4 D_2'  
     e( 10 - 10) =     14.36933  eV     1   --> A_2  G_2 D_1'  

 **************************************************************************

 **************************************************************************

                    xk=(   0.00000,   0.00000,   0.37500  )

     Band symmetry, C_4v (4mm)  point group:

     e(  1 -  1) =     -5.22770  eV     1   --> A_1  G_1 D_1   
     e(  2 -  2) =      3.53210  eV     1   --> B_2  G_4 D_2'  
     e(  3 -  4) =      4.61974  eV     2   --> E    G_5 D_5   
     e(  5 -  5) =      7.51230  eV     1   --> A_1  G_1 D_1   
     e(  6 -  6) =      9.92810  eV     1   --> B_2  G_4 D_2'  
     e(  7 -  8) =     10.56584  eV     2   --> E    G_5 D_5   
     e(  9 -  9) =     12.63380  eV     1   --> B_2  G_4 D_2'  
     e( 10 - 10) =     14.27765  eV     1   --> A_2  G_2 D_1'  

 **************************************************************************

 **************************************************************************

                    xk=(   0.00000,   0.00000,   0.35000  )

     Band symmetry, C_4v (4mm)  point group:

     e(  1 -  1) =     -5.30432  eV     1   --> A_1  G_1 D_1   
     e(  2 -  2) =      3.74925  eV     1   --> B_2  G_4 D_2'  
     e(  3 -  4) =      4.72805  eV     2   --> E    G_5 D_5   
     e(  5 -  5) =      7.60198  eV     1   --> A_1  G_1 D_1   
     e(  6 -  6) =     10.05509  eV     1   --> B_2  G_4 D_2'  
     e(  7 -  8) =     10.36561  eV     2   --> E    G_5 D_5   
     e(  9 -  9) =     12.48086  eV     1   --> B_2  G_4 D_2'  
     e( 10 - 10) =     14.19186  eV     1   --> A_2  G_2 D_1'  

 **************************************************************************

 **************************************************************************

                    xk=(   0.00000,   0.00000,   0.32500  )

     Band symmetry, C_4v (4mm)  point group:

     e(  1 -  1) =     -5.37578  eV     1   --> A_1  G_1 D_1   
     e(  2 -  2) =      3.96468  eV     1   --> B_2  G_4 D_2'  
     e(  3 -  4) =      4.83849  eV     2   --> E    G_5 D_5   
     e(  5 -  5) =      7.69272  eV     1   --> A_1  G_1 D_1   
     e(  6 -  6) =     10.14501  eV     1   --> B_2  G_4 D_2'  
     e(  7 -  8) =     10.16928  eV     2   --> E    G_5 D_5   
     e(  9 -  9) =     12.37234  eV     1   --> B_2  G_4 D_2'  
     e( 10 - 10) =     14.11196  eV     1   --> A_2  G_2 D_1'  

 **************************************************************************

 **************************************************************************

                    xk=(   0.00000,   0.00000,   0.30000  )

     Band symmetry, C_4v (4mm)  point group:

     e(  1 -  1) =     -5.44205  eV     1   --> A_1  G_1 D_1   
     e(  2 -  2) =      4.17790  eV     1   --> B_2  G_4 D_2'  
     e(  3 -  4) =      4.95055  eV     2   --> E    G_5 D_5   
     e(  5 -  5) =      7.78379  eV     1   --> A_1  G_1 D_1   
     e(  6 -  7) =      9.97737  eV     2   --> E    G_5 D_5   
     e(  8 -  8) =     10.18620  eV     1   --> B_2  G_4 D_2'  
     e(  9 -  9) =     12.31957  eV     1   --> B_2  G_4 D_2'  
     e( 10 - 10) =     14.03806  eV     1   --> A_2  G_2 D_1'  

 **************************************************************************

 **************************************************************************

                    xk=(   0.00000,   0.00000,   0.27500  )

     Band symmetry, C_4v (4mm)  point group:

     e(  1 -  1) =     -5.50311  eV     1   --> A_1  G_1 D_1   
     e(  2 -  2) =      4.38824  eV     1   --> B_2  G_4 D_2'  
     e(  3 -  4) =      5.06362  eV     2   --> E    G_5 D_5   
     e(  5 -  5) =      7.87434  eV     1   --> A_1  G_1 D_1   
     e(  6 -  7) =      9.79057  eV     2   --> E    G_5 D_5   
     e(  8 -  8) =     10.17238  eV     1   --> B_2  G_4 D_2'  
     e(  9 -  9) =     12.32821  eV     1   --> B_2  G_4 D_2'  
     e( 10 - 10) =     13.96996  eV     1   --> A_2  G_2 D_1'  

 **************************************************************************

 **************************************************************************

                    xk=(   0.00000,   0.00000,   0.25000  )

     Band symmetry, C_4v (4mm)  point group:

     e(  1 -  1) =     -5.55893  eV     1   --> A_1  G_1 D_1   
     e(  2 -  2) =      4.59487  eV     1   --> B_2  G_4 D_2'  
     e(  3 -  4) =      5.17693  eV     2   --> E    G_5 D_5   
     e(  5 -  5) =      7.96344  eV     1   --> A_1  G_1 D_1   
     e(  6 -  7) =      9.60971  eV     2   --> E    G_5 D_5   
     e(  8 -  8) =     10.10684  eV     1   --> B_2  G_4 D_2'  
     e(  9 -  9) =     12.39445  eV     1   --> B_2  G_4 D_2'  
     e( 10 - 10) =     13.90777  eV     1   --> A_2  G_2 D_1'  

 **************************************************************************

 **************************************************************************

                    xk=(   0.00000,   0.00000,   0.22500  )

     Band symmetry, C_4v (4mm)  point group:

     e(  1 -  1) =     -5.60950  eV     1   --> A_1  G_1 D_1   
     e(  2 -  2) =      4.79667  eV     1   --> B_2  G_4 D_2'  
     e(  3 -  4) =      5.28951  eV     2   --> E    G_5 D_5   
     e(  5 -  5) =      8.05004  eV     1   --> A_1  G_1 D_1   
     e(  6 -  7) =      9.43578  eV     2   --> E    G_5 D_5   
     e(  8 -  8) =     10.00070  eV     1   --> B_2  G_4 D_2'  
     e(  9 -  9) =     12.50644  eV     1   --> B_2  G_4 D_2'  
     e( 10 - 10) =     13.85150  eV     1   --> A_2  G_2 D_1'  

 **************************************************************************

 **************************************************************************

                    xk=(   0.00000,   0.00000,   0.20000  )

     Band symmetry, C_4v (4mm)  point group:

     e(  1 -  1) =     -5.65479  eV     1   --> A_1  G_1 D_1   
     e(  2 -  2) =      4.99222  eV     1   --> B_2  G_4 D_2'  
     e(  3 -  4) =      5.40018  eV     2   --> E    G_5 D_5   
     e(  5 -  5) =      8.13297  eV     1   --> A_1  G_1 D_1   
     e(  6 -  7) =      9.27006  eV     2   --> E    G_5 D_5   
     e(  8 -  8) =      9.86759  eV     1   --> B_2  G_4 D_2'  
     e(  9 -  9) =     12.64967  eV     1   --> B_2  G_4 D_2'  
     e( 10 - 10) =     13.80113  eV     1   --> A_2  G_2 D_1'  

 **************************************************************************

 **************************************************************************

                    xk=(   0.00000,   0.00000,   0.17500  )

     Band symmetry, C_4v (4mm)  point group:

     e(  1 -  1) =     -5.69479  eV     1   --> A_1  G_1 D_1   
     e(  2 -  2) =      5.17959  eV     1   --> B_2  G_4 D_2'  
     e(  3 -  4) =      5.50741  eV     2   --> E    G_5 D_5   
     e(  5 -  5) =      8.21095  eV     1   --> A_1  G_1 D_1   
     e(  6 -  7) =      9.11410  eV     2   --> E    G_5 D_5   
     e(  8 -  8) =      9.71992  eV     1   --> B_2  G_4 D_2'  
     e(  9 -  9) =     12.81071  eV     1   --> B_2  G_4 D_2'  
     e( 10 - 10) =     13.75669  eV     1   --> A_2  G_2 D_1'  

 **************************************************************************

 **************************************************************************

                    xk=(   0.00000,   0.00000,   0.15000  )

     Band symmetry, C_4v (4mm)  point group:

     e(  1 -  1) =     -5.72948  eV     1   --> A_1  G_1 D_1   
     e(  2 -  2) =      5.35629  eV     1   --> B_2  G_4 D_2'  
     e(  3 -  4) =      5.60934  eV     2   --> E    G_5 D_5   
     e(  5 -  5) =      8.28262  eV     1   --> A_1  G_1 D_1   
     e(  6 -  7) =      8.96982  eV     2   --> E    G_5 D_5   
     e(  8 -  8) =      9.56790  eV     1   --> B_2  G_4 D_2'  
     e(  9 -  9) =     12.97820  eV     1   --> B_2  G_4 D_2'  
     e( 10 - 10) =     13.71817  eV     1   --> A_2  G_2 D_1'  

 **************************************************************************

 **************************************************************************

                    xk=(   0.00000,   0.00000,   0.12500  )

     Band symmetry, C_4v (4mm)  point group:

     e(  1 -  1) =     -5.75886  eV     1   --> A_1  G_1 D_1   
     e(  2 -  2) =      5.51905  eV     1   --> B_2  G_4 D_2'  
     e(  3 -  4) =      5.70366  eV     2   --> E    G_5 D_5   
     e(  5 -  5) =      8.34656  eV     1   --> A_1  G_1 D_1   
     e(  6 -  7) =      8.83961  eV     2   --> E    G_5 D_5   
     e(  8 -  8) =      9.42008  eV     1   --> B_2  G_4 D_2'  
     e(  9 -  9) =     13.14230  eV     1   --> B_2  G_4 D_2'  
     e( 10 - 10) =     13.68568  eV     1   --> A_2  G_2 D_1'  

 **************************************************************************

 **************************************************************************

                    xk=(   0.00000,   0.00000,   0.10000  )

     Band symmetry, C_4v (4mm)  point group:

     e(  1 -  1) =     -5.78291  eV     1   --> A_1  G_1 D_1   
     e(  2 -  2) =      5.66372  eV     1   --> B_2  G_4 D_2'  
     e(  3 -  4) =      5.78757  eV     2   --> E    G_5 D_5   
     e(  5 -  5) =      8.40134  eV     1   --> A_1  G_1 D_1   
     e(  6 -  7) =      8.72625  eV     2   --> E    G_5 D_5   
     e(  8 -  8) =      9.28416  eV     1   --> B_2  G_4 D_2'  
     e(  9 -  9) =     13.29394  eV     1   --> B_2  G_4 D_2'  
     e( 10 - 10) =     13.65900  eV     1   --> A_2  G_2 D_1'  

 **************************************************************************

 **************************************************************************

                    xk=(   0.00000,   0.00000,   0.07500  )

     Band symmetry, C_4v (4mm)  point group:

     e(  1 -  1) =     -5.80162  eV     1   --> A_1  G_1 D_1   
     e(  2 -  2) =      5.78526  eV     1   --> B_2  G_4 D_2'  
     e(  3 -  4) =      5.85794  eV     2   --> E    G_5 D_5   
     e(  5 -  5) =      8.44563  eV     1   --> A_1  G_1 D_1   
     e(  6 -  7) =      8.63295  eV     2   --> E    G_5 D_5   
     e(  8 -  8) =      9.16751  eV     1   --> B_2  G_4 D_2'  
     e(  9 -  9) =     13.42444  eV     1   --> B_2  G_4 D_2'  
     e( 10 - 10) =     13.63825  eV     1   --> A_2  G_2 D_1'  

 **************************************************************************

 **************************************************************************

                    xk=(   0.00000,   0.00000,   0.05000  )

     Band symmetry, C_4v (4mm)  point group:

     e(  1 -  1) =     -5.81499  eV     1   --> A_1  G_1 D_1   
     e(  2 -  2) =      5.87802  eV     1   --> B_2  G_4 D_2'  
     e(  3 -  4) =      5.91144  eV     2   --> E    G_5 D_5   
     e(  5 -  5) =      8.47823  eV     1   --> A_1  G_1 D_1   
     e(  6 -  7) =      8.56307  eV     2   --> E    G_5 D_5   
     e(  8 -  8) =      9.07732  eV     1   --> B_2  G_4 D_2'  
     e(  9 -  9) =     13.52541  eV     1   --> B_2  G_4 D_2'  
     e( 10 - 10) =     13.62348  eV     1   --> A_2  G_2 D_1'  

 **************************************************************************

 **************************************************************************

                    xk=(   0.00000,   0.00000,   0.02500  )

     Band symmetry, C_4v (4mm)  point group:

     e(  1 -  1) =     -5.82301  eV     1   --> A_1  G_1 D_1   
     e(  2 -  2) =      5.93648  eV     1   --> B_2  G_4 D_2'  
     e(  3 -  4) =      5.94502  eV     2   --> E    G_5 D_5   
     e(  5 -  5) =      8.49819  eV     1   --> A_1  G_1 D_1   
     e(  6 -  7) =      8.51965  eV     2   --> E    G_5 D_5   
     e(  8 -  8) =      9.02004  eV     1   --> B_2  G_4 D_2'  
     e(  9 -  9) =     13.58963  eV     1   --> B_2  G_4 D_2'  
     e( 10 - 10) =     13.61458  eV     1   --> A_2  G_2 D_1'  

 **************************************************************************

 **************************************************************************

                    xk=(   0.00000,   0.00000,   0.00000  )

     point group O_h (m-3m) 
     there are 10 classes
     the character table:

       E     8C3   3C2   6C4   6C2'  i     8S6   3s_h  6S4   6s_d 
A_1g   1.00  1.00  1.00  1.00  1.00  1.00  1.00  1.00  1.00  1.00
A_2g   1.00  1.00  1.00 -1.00 -1.00  1.00  1.00  1.00 -1.00 -1.00
E_g    2.00 -1.00  2.00  0.00  0.00  2.00 -1.00  2.00  0.00  0.00
T_1g   3.00  0.00 -1.00  1.00 -1.00  3.00  0.00 -1.00  1.00 -1.00
T_2g   3.00  0.00 -1.00 -1.00  1.00  3.00  0.00 -1.00 -1.00  1.00
A_1u   1.00  1.00  1.00  1.00  1.00 -1.00 -1.00 -1.00 -1.00 -1.00
A_2u   1.00  1.00  1.00 -1.00 -1.00 -1.00 -1.00 -1.00  1.00  1.00
E_u    2.00 -1.00  2.00  0.00  0.00 -2.00  1.00 -2.00  0.00  0.00
T_1u   3.00  0.00 -1.00  1.00 -1.00 -3.00  0.00  1.00 -1.00  1.00
T_2u   3.00  0.00 -1.00 -1.00  1.00 -3.00  0.00  1.00  1.00 -1.00

     the symmetry operations in each class and the name of the first element:

     E        1
                                                                 
     8C3     17   19   20   18   24   21   22   23
                                                                 
     3C2      2    4    3
                                                                 
     6C4      7    8   15   16   12   11
                                                                 
     6C2'     5    6   14   13   10    9
                                                                 
     i       25
                                                                 
     8S6     41   43   44   42   48   45   46   47
                                                                 
     3s_h    26   28   27
                                                                 
     6S4     31   32   39   40   36   35
                                                                 
     6s_d    29   30   38   37   34   33
                                                                 

     Band symmetry, O_h (m-3m)  point group:

     e(  1 -  1) =     -5.82569  eV     1   --> A_1g G_1   G_1+
     e(  2 -  4) =      5.95649  eV     3   --> T_2g G_25' G_5+
     e(  5 -  7) =      8.50491  eV     3   --> T_1u G_15  G_4-
     e(  8 -  8) =      9.00037  eV     1   --> A_2u G_2'  G_2-
     e(  9 - 10) =     13.61163  eV     2   --> E_u  G_12' G_3-

 **************************************************************************

 **************************************************************************

                    xk=(  -0.01250,   0.01250,   0.01250  )

     point group C_3v (3m)  
     there are  3 classes
     the character table:

       E     2C3   3s_v 
A_1    1.00  1.00  1.00
A_2    1.00  1.00 -1.00
E      2.00 -1.00  0.00

     the symmetry operations in each class and the name of the first element:

     E        1
                                                                 
     2C3      2    3
                                                                 
     3s_v     4    5    6
                                                                 

     Band symmetry, C_3v (3m)   point group:

     e(  1 -  1) =     -5.82368  eV     1   --> A_1  L_1       
     e(  2 -  2) =      5.93125  eV     1   --> A_1  L_1       
     e(  3 -  4) =      5.95303  eV     2   --> E    L_3       
     e(  5 -  6) =      8.50998  eV     2   --> E    L_3       
     e(  7 -  7) =      8.51146  eV     1   --> A_1  L_1       
     e(  8 -  8) =      9.01547  eV     1   --> A_1  L_1       
     e(  9 - 10) =     13.60447  eV     2   --> E    L_3       

 **************************************************************************

 **************************************************************************

                    xk=(  -0.02500,   0.02500,   0.02500  )

     Band symmetry, C_3v (3m)   point group:

     e(  1 -  1) =     -5.81767  eV     1   --> A_1  L_1       
     e(  2 -  2) =      5.85813  eV     1   --> A_1  L_1       
     e(  3 -  4) =      5.94275  eV     2   --> E    L_3       
     e(  5 -  6) =      8.52504  eV     2   --> E    L_3       
     e(  7 -  7) =      8.52629  eV     1   --> A_1  L_1       
     e(  8 -  8) =      9.06309  eV     1   --> A_1  L_1       
     e(  9 - 10) =     13.58343  eV     2   --> E    L_3       

 **************************************************************************

 **************************************************************************

                    xk=(  -0.03750,   0.03750,   0.03750  )

     Band symmetry, C_3v (3m)   point group:

     e(  1 -  1) =     -5.80764  eV     1   --> A_1  L_1       
     e(  2 -  2) =      5.74373  eV     1   --> A_1  L_1       
     e(  3 -  4) =      5.92596  eV     2   --> E    L_3       
     e(  5 -  5) =      8.53903  eV     1   --> A_1  L_1       
     e(  6 -  7) =      8.54969  eV     2   --> E    L_3       
     e(  8 -  8) =      9.14718  eV     1   --> A_1  L_1       
     e(  9 - 10) =     13.54969  eV     2   --> E    L_3       

 **************************************************************************

 **************************************************************************

                    xk=(  -0.05000,   0.05000,   0.05000  )

     Band symmetry, C_3v (3m)   point group:

     e(  1 -  1) =     -5.79362  eV     1   --> A_1  L_1       
     e(  2 -  2) =      5.59629  eV     1   --> A_1  L_1       
     e(  3 -  4) =      5.90314  eV     2   --> E    L_3       
     e(  5 -  5) =      8.54191  eV     1   --> A_1  L_1       
     e(  6 -  7) =      8.58328  eV     2   --> E    L_3       
     e(  8 -  8) =      9.26768  eV     1   --> A_1  L_1       
     e(  9 - 10) =     13.50523  eV     2   --> E    L_3       

 **************************************************************************

 **************************************************************************

                    xk=(  -0.06250,   0.06250,   0.06250  )

     Band symmetry, C_3v (3m)   point group:

     e(  1 -  1) =     -5.77560  eV     1   --> A_1  L_1       
     e(  2 -  2) =      5.42366  eV     1   --> A_1  L_1       
     e(  3 -  4) =      5.87490  eV     2   --> E    L_3       
     e(  5 -  5) =      8.53286  eV     1   --> A_1  L_1       
     e(  6 -  7) =      8.62496  eV     2   --> E    L_3       
     e(  8 -  8) =      9.41922  eV     1   --> A_1  L_1       
     e(  9 - 10) =     13.45233  eV     2   --> E    L_3       

 **************************************************************************

 **************************************************************************

                    xk=(  -0.07500,   0.07500,   0.07500  )

     Band symmetry, C_3v (3m)   point group:

     e(  1 -  1) =     -5.75360  eV     1   --> A_1  L_1       
     e(  2 -  2) =      5.23240  eV     1   --> A_1  L_1       
     e(  3 -  4) =      5.84193  eV     2   --> E    L_3       
     e(  5 -  5) =      8.51327  eV     1   --> A_1  L_1       
     e(  6 -  7) =      8.67376  eV     2   --> E    L_3       
     e(  8 -  8) =      9.59445  eV     1   --> A_1  L_1       
     e(  9 - 10) =     13.39350  eV     2   --> E    L_3       

 **************************************************************************

 **************************************************************************

                    xk=(  -0.08750,   0.08750,   0.08750  )

     Band symmetry, C_3v (3m)   point group:

     e(  1 -  1) =     -5.72764  eV     1   --> A_1  L_1       
     e(  2 -  2) =      5.02756  eV     1   --> A_1  L_1       
     e(  3 -  4) =      5.80494  eV     2   --> E    L_3       
     e(  5 -  5) =      8.48528  eV     1   --> A_1  L_1       
     e(  6 -  7) =      8.72856  eV     2   --> E    L_3       
     e(  8 -  8) =      9.78674  eV     1   --> A_1  L_1       
     e(  9 - 10) =     13.33117  eV     2   --> E    L_3       

 **************************************************************************

 **************************************************************************

                    xk=(  -0.10000,   0.10000,   0.10000  )

     Band symmetry, C_3v (3m)   point group:

     e(  1 -  1) =     -5.69774  eV     1   --> A_1  L_1       
     e(  2 -  2) =      4.81297  eV     1   --> A_1  L_1       
     e(  3 -  4) =      5.76465  eV     2   --> E    L_3       
     e(  5 -  5) =      8.45080  eV     1   --> A_1  L_1       
     e(  6 -  7) =      8.78814  eV     2   --> E    L_3       
     e(  8 -  8) =      9.99101  eV     1   --> A_1  L_1       
     e(  9 - 10) =     13.26767  eV     2   --> E    L_3       

 **************************************************************************

 **************************************************************************

                    xk=(  -0.11250,   0.11250,   0.11250  )

     Band symmetry, C_3v (3m)   point group:

     e(  1 -  1) =     -5.66392  eV     1   --> A_1  L_1       
     e(  2 -  2) =      4.59149  eV     1   --> A_1  L_1       
     e(  3 -  4) =      5.72174  eV     2   --> E    L_3       
     e(  5 -  5) =      8.41135  eV     1   --> A_1  L_1       
     e(  6 -  7) =      8.85131  eV     2   --> E    L_3       
     e(  8 -  8) =     10.20359  eV     1   --> A_1  L_1       
     e(  9 - 10) =     13.20537  eV     2   --> E    L_3       

 **************************************************************************

 **************************************************************************

                    xk=(  -0.12500,   0.12500,   0.12500  )

     Band symmetry, C_3v (3m)   point group:

     e(  1 -  1) =     -5.62620  eV     1   --> A_1  L_1       
     e(  2 -  2) =      4.36525  eV     1   --> A_1  L_1       
     e(  3 -  4) =      5.67686  eV     2   --> E    L_3       
     e(  5 -  5) =      8.36810  eV     1   --> A_1  L_1       
     e(  6 -  7) =      8.91679  eV     2   --> E    L_3       
     e(  8 -  8) =     10.42179  eV     1   --> A_1  L_1       
     e(  9 - 10) =     13.14633  eV     2   --> E    L_3       

 **************************************************************************

 **************************************************************************

                    xk=(  -0.13750,   0.13750,   0.13750  )

     Band symmetry, C_3v (3m)   point group:

     e(  1 -  1) =     -5.58461  eV     1   --> A_1  L_1       
     e(  2 -  2) =      4.13588  eV     1   --> A_1  L_1       
     e(  3 -  4) =      5.63058  eV     2   --> E    L_3       
     e(  5 -  5) =      8.32202  eV     1   --> A_1  L_1       
     e(  6 -  7) =      8.98326  eV     2   --> E    L_3       
     e(  8 -  8) =     10.64368  eV     1   --> A_1  L_1       
     e(  9 - 10) =     13.09250  eV     2   --> E    L_3       

 **************************************************************************

 **************************************************************************

                    xk=(  -0.15000,   0.15000,   0.15000  )

     Band symmetry, C_3v (3m)   point group:

     e(  1 -  1) =     -5.53920  eV     1   --> A_1  L_1       
     e(  2 -  2) =      3.90466  eV     1   --> A_1  L_1       
     e(  3 -  4) =      5.58342  eV     2   --> E    L_3       
     e(  5 -  5) =      8.27389  eV     1   --> A_1  L_1       
     e(  6 -  7) =      9.04944  eV     2   --> E    L_3       
     e(  8 -  8) =     10.86784  eV     1   --> A_1  L_1       
     e(  9 - 10) =     13.04573  eV     2   --> E    L_3       

 **************************************************************************

 **************************************************************************

                    xk=(  -0.16250,   0.16250,   0.16250  )

     Band symmetry, C_3v (3m)   point group:

     e(  1 -  1) =     -5.49000  eV     1   --> A_1  L_1       
     e(  2 -  2) =      3.67259  eV     1   --> A_1  L_1       
     e(  3 -  4) =      5.53583  eV     2   --> E    L_3       
     e(  5 -  5) =      8.22437  eV     1   --> A_1  L_1       
     e(  6 -  7) =      9.11403  eV     2   --> E    L_3       
     e(  8 -  8) =     11.09318  eV     1   --> A_1  L_1       
     e(  9 - 10) =     13.00774  eV     2   --> E    L_3       

 **************************************************************************

 **************************************************************************

                    xk=(  -0.17500,   0.17500,   0.17500  )

     Band symmetry, C_3v (3m)   point group:

     e(  1 -  1) =     -5.43707  eV     1   --> A_1  L_1       
     e(  2 -  2) =      3.44046  eV     1   --> A_1  L_1       
     e(  3 -  4) =      5.48821  eV     2   --> E    L_3       
     e(  5 -  5) =      8.17404  eV     1   --> A_1  L_1       
     e(  6 -  7) =      9.17577  eV     2   --> E    L_3       
     e(  8 -  8) =     11.31887  eV     1   --> A_1  L_1       
     e(  9 - 10) =     12.98010  eV     2   --> E    L_3       

 **************************************************************************

 **************************************************************************

                    xk=(  -0.18750,   0.18750,   0.18750  )

     Band symmetry, C_3v (3m)   point group:

     e(  1 -  1) =     -5.38045  eV     1   --> A_1  L_1       
     e(  2 -  2) =      3.20894  eV     1   --> A_1  L_1       
     e(  3 -  4) =      5.44091  eV     2   --> E    L_3       
     e(  5 -  5) =      8.12339  eV     1   --> A_1  L_1       
     e(  6 -  7) =      9.23348  eV     2   --> E    L_3       
     e(  8 -  8) =     11.54422  eV     1   --> A_1  L_1       
     e(  9 - 10) =     12.96430  eV     2   --> E    L_3       

 **************************************************************************

 **************************************************************************

                    xk=(  -0.20000,   0.20000,   0.20000  )

     Band symmetry, C_3v (3m)   point group:

     e(  1 -  1) =     -5.32021  eV     1   --> A_1  L_1       
     e(  2 -  2) =      2.97859  eV     1   --> A_1  L_1       
     e(  3 -  4) =      5.39423  eV     2   --> E    L_3       
     e(  5 -  5) =      8.07281  eV     1   --> A_1  L_1       
     e(  6 -  7) =      9.28608  eV     2   --> E    L_3       
     e(  8 -  8) =     11.76863  eV     1   --> A_1  L_1       
     e(  9 - 10) =     12.96158  eV     2   --> E    L_3       

 **************************************************************************

 **************************************************************************

                    xk=(  -0.21250,   0.21250,   0.21250  )

     Band symmetry, C_3v (3m)   point group:

     e(  1 -  1) =     -5.25643  eV     1   --> A_1  L_1       
     e(  2 -  2) =      2.74990  eV     1   --> A_1  L_1       
     e(  3 -  4) =      5.34841  eV     2   --> E    L_3       
     e(  5 -  5) =      8.02270  eV     1   --> A_1  L_1       
     e(  6 -  7) =      9.33267  eV     2   --> E    L_3       
     e(  8 -  8) =     11.99151  eV     1   --> A_1  L_1       
     e(  9 - 10) =     12.97304  eV     2   --> E    L_3       

 **************************************************************************

 **************************************************************************

                    xk=(  -0.22500,   0.22500,   0.22500  )

     Band symmetry, C_3v (3m)   point group:

     e(  1 -  1) =     -5.18918  eV     1   --> A_1  L_1       
     e(  2 -  2) =      2.52328  eV     1   --> A_1  L_1       
     e(  3 -  4) =      5.30368  eV     2   --> E    L_3       
     e(  5 -  5) =      7.97336  eV     1   --> A_1  L_1       
     e(  6 -  7) =      9.37256  eV     2   --> E    L_3       
     e(  8 -  8) =     12.21218  eV     1   --> A_1  L_1       
     e(  9 - 10) =     12.99947  eV     2   --> E    L_3       

 **************************************************************************

 **************************************************************************

                    xk=(  -0.23750,   0.23750,   0.23750  )

     Band symmetry, C_3v (3m)   point group:

     e(  1 -  1) =     -5.11858  eV     1   --> A_1  L_1       
     e(  2 -  2) =      2.29913  eV     1   --> A_1  L_1       
     e(  3 -  4) =      5.26022  eV     2   --> E    L_3       
     e(  5 -  5) =      7.92506  eV     1   --> A_1  L_1       
     e(  6 -  7) =      9.40531  eV     2   --> E    L_3       
     e(  8 -  8) =     12.42979  eV     1   --> A_1  L_1       
     e(  9 - 10) =     13.04145  eV     2   --> E    L_3       

 **************************************************************************

 **************************************************************************

                    xk=(  -0.25000,   0.25000,   0.25000  )

     Band symmetry, C_3v (3m)   point group:

     e(  1 -  1) =     -5.04473  eV     1   --> A_1  L_1       
     e(  2 -  2) =      2.07781  eV     1   --> A_1  L_1       
     e(  3 -  4) =      5.21820  eV     2   --> E    L_3       
     e(  5 -  5) =      7.87803  eV     1   --> A_1  L_1       
     e(  6 -  7) =      9.43077  eV     2   --> E    L_3       
     e(  8 -  8) =     12.64315  eV     1   --> A_1  L_1       
     e(  9 - 10) =     13.09920  eV     2   --> E    L_3       

 **************************************************************************

 **************************************************************************

                    xk=(  -0.26250,   0.26250,   0.26250  )

     Band symmetry, C_3v (3m)   point group:

     e(  1 -  1) =     -4.96778  eV     1   --> A_1  L_1       
     e(  2 -  2) =      1.85966  eV     1   --> A_1  L_1       
     e(  3 -  4) =      5.17774  eV     2   --> E    L_3       
     e(  5 -  5) =      7.83248  eV     1   --> A_1  L_1       
     e(  6 -  7) =      9.44905  eV     2   --> E    L_3       
     e(  8 -  8) =     12.85051  eV     1   --> A_1  L_1       
     e(  9 - 10) =     13.17268  eV     2   --> E    L_3       

 **************************************************************************

 **************************************************************************

                    xk=(  -0.27500,   0.27500,   0.27500  )

     Band symmetry, C_3v (3m)   point group:

     e(  1 -  1) =     -4.88787  eV     1   --> A_1  L_1       
     e(  2 -  2) =      1.64502  eV     1   --> A_1  L_1       
     e(  3 -  4) =      5.13897  eV     2   --> E    L_3       
     e(  5 -  5) =      7.78858  eV     1   --> A_1  L_1       
     e(  6 -  7) =      9.46052  eV     2   --> E    L_3       
     e(  8 -  8) =     13.04922  eV     1   --> A_1  L_1       
     e(  9 - 10) =     13.26155  eV     2   --> E    L_3       

 **************************************************************************

 **************************************************************************

                    xk=(  -0.28750,   0.28750,   0.28750  )

     Band symmetry, C_3v (3m)   point group:

     e(  1 -  1) =     -4.80521  eV     1   --> A_1  L_1       
     e(  2 -  2) =      1.43423  eV     1   --> A_1  L_1       
     e(  3 -  4) =      5.10197  eV     2   --> E    L_3       
     e(  5 -  5) =      7.74648  eV     1   --> A_1  L_1       
     e(  6 -  7) =      9.46575  eV     2   --> E    L_3       
     e(  8 -  8) =     13.23522  eV     1   --> A_1  L_1       
     e(  9 - 10) =     13.36524  eV     2   --> E    L_3       

 **************************************************************************

 **************************************************************************

                    xk=(  -0.30000,   0.30000,   0.30000  )

     Band symmetry, C_3v (3m)   point group:

     e(  1 -  1) =     -4.72001  eV     1   --> A_1  L_1       
     e(  2 -  2) =      1.22767  eV     1   --> A_1  L_1       
     e(  3 -  4) =      5.06683  eV     2   --> E    L_3       
     e(  5 -  5) =      7.70631  eV     1   --> A_1  L_1       
     e(  6 -  7) =      9.46547  eV     2   --> E    L_3       
     e(  8 -  8) =     13.40256  eV     1   --> A_1  L_1       
     e(  9 - 10) =     13.48313  eV     2   --> E    L_3       

 **************************************************************************

 **************************************************************************

                    xk=(  -0.31250,   0.31250,   0.31250  )

     Band symmetry, C_3v (3m)   point group:

     e(  1 -  1) =     -4.63254  eV     1   --> A_1  L_1       
     e(  2 -  2) =      1.02571  eV     1   --> A_1  L_1       
     e(  3 -  4) =      5.03361  eV     2   --> E    L_3       
     e(  5 -  5) =      7.66818  eV     1   --> A_1  L_1       
     e(  6 -  7) =      9.46048  eV     2   --> E    L_3       
     e(  8 -  8) =     13.54354  eV     1   --> A_1  L_1       
     e(  9 - 10) =     13.61431  eV     2   --> E    L_3       

 **************************************************************************

 **************************************************************************

                    xk=(  -0.32500,   0.32500,   0.32500  )

     Band symmetry, C_3v (3m)   point group:

     e(  1 -  1) =     -4.54313  eV     1   --> A_1  L_1       
     e(  2 -  2) =      0.82879  eV     1   --> A_1  L_1       
     e(  3 -  4) =      5.00238  eV     2   --> E    L_3       
     e(  5 -  5) =      7.63219  eV     1   --> A_1  L_1       
     e(  6 -  7) =      9.45164  eV     2   --> E    L_3       
     e(  8 -  8) =     13.65068  eV     1   --> A_1  L_1       
     e(  9 - 10) =     13.75795  eV     2   --> E    L_3       

 **************************************************************************

 **************************************************************************

                    xk=(  -0.33750,   0.33750,   0.33750  )

     Band symmetry, C_3v (3m)   point group:

     e(  1 -  1) =     -4.45216  eV     1   --> A_1  L_1       
     e(  2 -  2) =      0.63738  eV     1   --> A_1  L_1       
     e(  3 -  4) =      4.97317  eV     2   --> E    L_3       
     e(  5 -  5) =      7.59842  eV     1   --> A_1  L_1       
     e(  6 -  7) =      9.43979  eV     2   --> E    L_3       
     e(  8 -  8) =     13.72092  eV     1   --> A_1  L_1       
     e(  9 - 10) =     13.91314  eV     2   --> E    L_3       

 **************************************************************************

 **************************************************************************

                    xk=(  -0.35000,   0.35000,   0.35000  )

     Band symmetry, C_3v (3m)   point group:

     e(  1 -  1) =     -4.36010  eV     1   --> A_1  L_1       
     e(  2 -  2) =      0.45205  eV     1   --> A_1  L_1       
     e(  3 -  4) =      4.94602  eV     2   --> E    L_3       
     e(  5 -  5) =      7.56694  eV     1   --> A_1  L_1       
     e(  6 -  7) =      9.42576  eV     2   --> E    L_3       
     e(  8 -  8) =     13.75816  eV     1   --> A_1  L_1       
     e(  9 - 10) =     14.07904  eV     2   --> E    L_3       

 **************************************************************************

 **************************************************************************

                    xk=(  -0.36250,   0.36250,   0.36250  )

     Band symmetry, C_3v (3m)   point group:

     e(  1 -  1) =     -4.26754  eV     1   --> A_1  L_1       
     e(  2 -  2) =      0.27344  eV     1   --> A_1  L_1       
     e(  3 -  4) =      4.92098  eV     2   --> E    L_3       
     e(  5 -  5) =      7.53779  eV     1   --> A_1  L_1       
     e(  6 -  7) =      9.41030  eV     2   --> E    L_3       
     e(  8 -  8) =     13.77077  eV     1   --> A_1  L_1       
     e(  9 - 10) =     14.25480  eV     2   --> E    L_3       

 **************************************************************************

 **************************************************************************

                    xk=(  -0.37500,   0.37500,   0.37500  )

     Band symmetry, C_3v (3m)   point group:

     e(  1 -  1) =     -4.17518  eV     1   --> A_1  L_1       
     e(  2 -  2) =      0.10231  eV     1   --> A_1  L_1       
     e(  3 -  4) =      4.89805  eV     2   --> E    L_3       
     e(  5 -  5) =      7.51106  eV     1   --> A_1  L_1       
     e(  6 -  7) =      9.39409  eV     2   --> E    L_3       
     e(  8 -  8) =     13.76739  eV     1   --> A_1  L_1       
     e(  9 - 10) =     14.43959  eV     2   --> E    L_3       

 **************************************************************************

 **************************************************************************

                    xk=(  -0.38750,   0.38750,   0.38750  )

     Band symmetry, C_3v (3m)   point group:

     e(  1 -  1) =     -4.08388  eV     1   --> A_1  L_1       
     e(  2 -  2) =     -0.06040  eV     1   --> A_1  L_1       
     e(  3 -  4) =      4.87726  eV     2   --> E    L_3       
     e(  5 -  5) =      7.48676  eV     1   --> A_1  L_1       
     e(  6 -  7) =      9.37774  eV     2   --> E    L_3       
     e(  8 -  8) =     13.75465  eV     1   --> A_1  L_1       
     e(  9 - 10) =     14.63265  eV     2   --> E    L_3       

 **************************************************************************

 **************************************************************************

                    xk=(  -0.40000,   0.40000,   0.40000  )

     Band symmetry, C_3v (3m)   point group:

     e(  1 -  1) =     -3.99470  eV     1   --> A_1  L_1       
     e(  2 -  2) =     -0.21359  eV     1   --> A_1  L_1       
     e(  3 -  4) =      4.85863  eV     2   --> E    L_3       
     e(  5 -  5) =      7.46492  eV     1   --> A_1  L_1       
     e(  6 -  7) =      9.36179  eV     2   --> E    L_3       
     e(  8 -  8) =     13.73710  eV     1   --> A_1  L_1       
     e(  9 - 10) =     14.83312  eV     2   --> E    L_3       

 **************************************************************************

 **************************************************************************

                    xk=(  -0.41250,   0.41250,   0.41250  )

     Band symmetry, C_3v (3m)   point group:

     e(  1 -  1) =     -3.90895  eV     1   --> A_1  L_1       
     e(  2 -  2) =     -0.35593  eV     1   --> A_1  L_1       
     e(  3 -  4) =      4.84217  eV     2   --> E    L_3       
     e(  5 -  5) =      7.44558  eV     1   --> A_1  L_1       
     e(  6 -  7) =      9.34671  eV     2   --> E    L_3       
     e(  8 -  8) =     13.71773  eV     1   --> A_1  L_1       
     e(  9 - 10) =     15.04028  eV     2   --> E    L_3       

 **************************************************************************

 **************************************************************************

                    xk=(  -0.42500,   0.42500,   0.42500  )

     Band symmetry, C_3v (3m)   point group:

     e(  1 -  1) =     -3.82816  eV     1   --> A_1  L_1       
     e(  2 -  2) =     -0.48582  eV     1   --> A_1  L_1       
     e(  3 -  4) =      4.82789  eV     2   --> E    L_3       
     e(  5 -  5) =      7.42879  eV     1   --> A_1  L_1       
     e(  6 -  7) =      9.33288  eV     2   --> E    L_3       
     e(  8 -  8) =     13.69851  eV     1   --> A_1  L_1       
     e(  9 - 10) =     15.25308  eV     2   --> E    L_3       

 **************************************************************************

 **************************************************************************

                    xk=(  -0.43750,   0.43750,   0.43750  )

     Band symmetry, C_3v (3m)   point group:

     e(  1 -  1) =     -3.75417  eV     1   --> A_1  L_1       
     e(  2 -  2) =     -0.60141  eV     1   --> A_1  L_1       
     e(  3 -  4) =      4.81580  eV     2   --> E    L_3       
     e(  5 -  5) =      7.41455  eV     1   --> A_1  L_1       
     e(  6 -  7) =      9.32066  eV     2   --> E    L_3       
     e(  8 -  8) =     13.68075  eV     1   --> A_1  L_1       
     e(  9 - 10) =     15.47028  eV     2   --> E    L_3       

 **************************************************************************

 **************************************************************************

                    xk=(  -0.45000,   0.45000,   0.45000  )

     Band symmetry, C_3v (3m)   point group:

     e(  1 -  1) =     -3.68907  eV     1   --> A_1  L_1       
     e(  2 -  2) =     -0.70058  eV     1   --> A_1  L_1       
     e(  3 -  4) =      4.80590  eV     2   --> E    L_3       
     e(  5 -  5) =      7.40289  eV     1   --> A_1  L_1       
     e(  6 -  7) =      9.31030  eV     2   --> E    L_3       
     e(  8 -  8) =     13.66532  eV     1   --> A_1  L_1       
     e(  9 - 10) =     15.68983  eV     2   --> E    L_3       

 **************************************************************************

 **************************************************************************

                    xk=(  -0.46250,   0.46250,   0.46250  )

     Band symmetry, C_3v (3m)   point group:

     e(  1 -  1) =     -3.63510  eV     1   --> A_1  L_1       
     e(  2 -  2) =     -0.78106  eV     1   --> A_1  L_1       
     e(  3 -  4) =      4.79820  eV     2   --> E    L_3       
     e(  5 -  5) =      7.39380  eV     1   --> A_1  L_1       
     e(  6 -  7) =      9.30203  eV     2   --> E    L_3       
     e(  8 -  8) =     13.65282  eV     1   --> A_1  L_1       
     e(  9 - 10) =     15.90792  eV     2   --> E    L_3       

 **************************************************************************

 **************************************************************************

                    xk=(  -0.47500,   0.47500,   0.47500  )

     Band symmetry, C_3v (3m)   point group:

     e(  1 -  1) =     -3.59451  eV     1   --> A_1  L_1       
     e(  2 -  2) =     -0.84061  eV     1   --> A_1  L_1       
     e(  3 -  4) =      4.79270  eV     2   --> E    L_3       
     e(  5 -  5) =      7.38731  eV     1   --> A_1  L_1       
     e(  6 -  7) =      9.29601  eV     2   --> E    L_3       
     e(  8 -  8) =     13.64363  eV     1   --> A_1  L_1       
     e(  9 - 10) =     16.11594  eV     2   --> E    L_3       

 **************************************************************************

 **************************************************************************

                    xk=(  -0.48750,   0.48750,   0.48750  )

     Band symmetry, C_3v (3m)   point group:

     e(  1 -  1) =     -3.56925  eV     1   --> A_1  L_1       
     e(  2 -  2) =     -0.87725  eV     1   --> A_1  L_1       
     e(  3 -  4) =      4.78939  eV     2   --> E    L_3       
     e(  5 -  5) =      7.38340  eV     1   --> A_1  L_1       
     e(  6 -  7) =      9.29235  eV     2   --> E    L_3       
     e(  8 -  8) =     13.63803  eV     1   --> A_1  L_1       
     e(  9 - 10) =     16.29001  eV     2   --> E    L_3       

 **************************************************************************

 **************************************************************************

                    xk=(  -0.50000,   0.50000,   0.50000  )

     zone border point and non-symmorphic group 
     symmetry decomposition not available

 **************************************************************************

 **************************************************************************

                    xk=(  -0.50000,   0.48750,   0.51250  )

     zone border point and non-symmorphic group 
     symmetry decomposition not available

 **************************************************************************

 **************************************************************************

                    xk=(  -0.50000,   0.47500,   0.52500  )

     zone border point and non-symmorphic group 
     symmetry decomposition not available

 **************************************************************************

 **************************************************************************

                    xk=(  -0.50000,   0.46250,   0.53750  )

     zone border point and non-symmorphic group 
     symmetry decomposition not available

 **************************************************************************

 **************************************************************************

                    xk=(  -0.50000,   0.45000,   0.55000  )

     zone border point and non-symmorphic group 
     symmetry decomposition not available

 **************************************************************************

 **************************************************************************

                    xk=(  -0.50000,   0.43750,   0.56250  )

     zone border point and non-symmorphic group 
     symmetry decomposition not available

 **************************************************************************

 **************************************************************************

                    xk=(  -0.50000,   0.42500,   0.57500  )

     zone border point and non-symmorphic group 
     symmetry decomposition not available

 **************************************************************************

 **************************************************************************

                    xk=(  -0.50000,   0.41250,   0.58750  )

     zone border point and non-symmorphic group 
     symmetry decomposition not available

 **************************************************************************

 **************************************************************************

                    xk=(  -0.50000,   0.40000,   0.60000  )

     zone border point and non-symmorphic group 
     symmetry decomposition not available

 **************************************************************************

 **************************************************************************

                    xk=(  -0.50000,   0.38750,   0.61250  )

     zone border point and non-symmorphic group 
     symmetry decomposition not available

 **************************************************************************

 **************************************************************************

                    xk=(  -0.50000,   0.37500,   0.62500  )

     zone border point and non-symmorphic group 
     symmetry decomposition not available

 **************************************************************************

 **************************************************************************

                    xk=(  -0.50000,   0.36250,   0.63750  )

     zone border point and non-symmorphic group 
     symmetry decomposition not available

 **************************************************************************

 **************************************************************************

                    xk=(  -0.50000,   0.35000,   0.65000  )

     zone border point and non-symmorphic group 
     symmetry decomposition not available

 **************************************************************************

 **************************************************************************

                    xk=(  -0.50000,   0.33750,   0.66250  )

     zone border point and non-symmorphic group 
     symmetry decomposition not available

 **************************************************************************

 **************************************************************************

                    xk=(  -0.50000,   0.32500,   0.67500  )

     zone border point and non-symmorphic group 
     symmetry decomposition not available

 **************************************************************************

 **************************************************************************

                    xk=(  -0.50000,   0.31250,   0.68750  )

     zone border point and non-symmorphic group 
     symmetry decomposition not available

 **************************************************************************

 **************************************************************************

                    xk=(  -0.50000,   0.30000,   0.70000  )

     zone border point and non-symmorphic group 
     symmetry decomposition not available

 **************************************************************************

 **************************************************************************

                    xk=(  -0.50000,   0.28750,   0.71250  )

     zone border point and non-symmorphic group 
     symmetry decomposition not available

 **************************************************************************

 **************************************************************************

                    xk=(  -0.50000,   0.27500,   0.72500  )

     zone border point and non-symmorphic group 
     symmetry decomposition not available

 **************************************************************************

 **************************************************************************

                    xk=(  -0.50000,   0.26250,   0.73750  )

     zone border point and non-symmorphic group 
     symmetry decomposition not available

 **************************************************************************

 **************************************************************************

                    xk=(  -0.50000,   0.25000,   0.75000  )

     zone border point and non-symmorphic group 
     symmetry decomposition not available

 **************************************************************************

 **************************************************************************

                    xk=(  -0.50000,   0.23750,   0.76250  )

     zone border point and non-symmorphic group 
     symmetry decomposition not available

 **************************************************************************

 **************************************************************************

                    xk=(  -0.50000,   0.22500,   0.77500  )

     zone border point and non-symmorphic group 
     symmetry decomposition not available

 **************************************************************************

 **************************************************************************

                    xk=(  -0.50000,   0.21250,   0.78750  )

     zone border point and non-symmorphic group 
     symmetry decomposition not available

 **************************************************************************

 **************************************************************************

                    xk=(  -0.50000,   0.20000,   0.80000  )

     zone border point and non-symmorphic group 
     symmetry decomposition not available

 **************************************************************************

 **************************************************************************

                    xk=(  -0.50000,   0.18750,   0.81250  )

     zone border point and non-symmorphic group 
     symmetry decomposition not available

 **************************************************************************

 **************************************************************************

                    xk=(  -0.50000,   0.17500,   0.82500  )

     zone border point and non-symmorphic group 
     symmetry decomposition not available

 **************************************************************************

 **************************************************************************

                    xk=(  -0.50000,   0.16250,   0.83750  )

     zone border point and non-symmorphic group 
     symmetry decomposition not available

 **************************************************************************

 **************************************************************************

                    xk=(  -0.50000,   0.15000,   0.85000  )

     zone border point and non-symmorphic group 
     symmetry decomposition not available

 **************************************************************************

 **************************************************************************

                    xk=(  -0.50000,   0.13750,   0.86250  )

     zone border point and non-symmorphic group 
     symmetry decomposition not available

 **************************************************************************

 **************************************************************************

                    xk=(  -0.50000,   0.12500,   0.87500  )

     zone border point and non-symmorphic group 
     symmetry decomposition not available

 **************************************************************************

 **************************************************************************

                    xk=(  -0.50000,   0.11250,   0.88750  )

     zone border point and non-symmorphic group 
     symmetry decomposition not available

 **************************************************************************

 **************************************************************************

                    xk=(  -0.50000,   0.10000,   0.90000  )

     zone border point and non-symmorphic group 
     symmetry decomposition not available

 **************************************************************************

 **************************************************************************

                    xk=(  -0.50000,   0.08750,   0.91250  )

     zone border point and non-symmorphic group 
     symmetry decomposition not available

 **************************************************************************

 **************************************************************************

                    xk=(  -0.50000,   0.07500,   0.92500  )

     zone border point and non-symmorphic group 
     symmetry decomposition not available

 **************************************************************************

 **************************************************************************

                    xk=(  -0.50000,   0.06250,   0.93750  )

     zone border point and non-symmorphic group 
     symmetry decomposition not available

 **************************************************************************

 **************************************************************************

                    xk=(  -0.50000,   0.05000,   0.95000  )

     zone border point and non-symmorphic group 
     symmetry decomposition not available

 **************************************************************************

 **************************************************************************

                    xk=(  -0.50000,   0.03750,   0.96250  )

     zone border point and non-symmorphic group 
     symmetry decomposition not available

 **************************************************************************

 **************************************************************************

                    xk=(  -0.50000,   0.02500,   0.97500  )

     zone border point and non-symmorphic group 
     symmetry decomposition not available

 **************************************************************************

 **************************************************************************

                    xk=(  -0.50000,   0.01250,   0.98750  )

     zone border point and non-symmorphic group 
     symmetry decomposition not available

 **************************************************************************

 **************************************************************************

                    xk=(  -0.50000,   0.00000,   1.00000  )

     zone border point and non-symmorphic group 
     symmetry decomposition not available

 **************************************************************************

 **************************************************************************

                    xk=(  -0.50625,   0.00000,   0.99375  )

     point group C_s (m)    
     there are  2 classes
     the character table:

       E     s    
A'     1.00  1.00
A''    1.00 -1.00

     the symmetry operations in each class and the name of the first element:

     E        1
                                                                 
     s        2
                                                                 

     Band symmetry, C_s (m)     point group:

     e(  1 -  1) =     -1.65219  eV     1   --> A'             
     e(  2 -  2) =     -1.59665  eV     1   --> A''            
     e(  3 -  3) =      2.19944  eV     1   --> A'             
     e(  4 -  4) =      2.24224  eV     1   --> A''            
     e(  5 -  5) =     10.16718  eV     1   --> A''            
     e(  6 -  6) =     10.22183  eV     1   --> A'             
     e(  7 -  7) =     10.84433  eV     1   --> A''            
     e(  8 -  8) =     10.87885  eV     1   --> A'             
     e(  9 -  9) =     16.27755  eV     1   --> A'             
     e( 10 - 10) =     16.37960  eV     1   --> A''            

 **************************************************************************

 **************************************************************************

                    xk=(  -0.51250,   0.00000,   0.98750  )

     Band symmetry, C_s (m)     point group:

     e(  1 -  1) =     -1.67938  eV     1   --> A'             
     e(  2 -  2) =     -1.57011  eV     1   --> A''            
     e(  3 -  3) =      2.17907  eV     1   --> A'             
     e(  4 -  4) =      2.26614  eV     1   --> A''            
     e(  5 -  5) =     10.10379  eV     1   --> A''            
     e(  6 -  6) =     10.23512  eV     1   --> A'             
     e(  7 -  7) =     10.86547  eV     1   --> A''            
     e(  8 -  8) =     10.91187  eV     1   --> A'             
     e(  9 -  9) =     16.22363  eV     1   --> A'             
     e( 10 - 10) =     16.42557  eV     1   --> A''            

 **************************************************************************

 **************************************************************************

                    xk=(  -0.51875,   0.00000,   0.98125  )

     Band symmetry, C_s (m)     point group:

     e(  1 -  1) =     -1.70587  eV     1   --> A'             
     e(  2 -  2) =     -1.54470  eV     1   --> A''            
     e(  3 -  3) =      2.15915  eV     1   --> A'             
     e(  4 -  4) =      2.29192  eV     1   --> A''            
     e(  5 -  5) =     10.02141  eV     1   --> A''            
     e(  6 -  6) =     10.24382  eV     1   --> A'             
     e(  7 -  7) =     10.90727  eV     1   --> A''            
     e(  8 -  8) =     10.95053  eV     1   --> A'             
     e(  9 -  9) =     16.16822  eV     1   --> A'             
     e( 10 - 10) =     16.46707  eV     1   --> A''            

 **************************************************************************

 **************************************************************************

                    xk=(  -0.52500,   0.00000,   0.97500  )

     Band symmetry, C_s (m)     point group:

     e(  1 -  1) =     -1.73167  eV     1   --> A'             
     e(  2 -  2) =     -1.52040  eV     1   --> A''            
     e(  3 -  3) =      2.13968  eV     1   --> A'             
     e(  4 -  4) =      2.31954  eV     1   --> A''            
     e(  5 -  5) =      9.92729  eV     1   --> A''            
     e(  6 -  6) =     10.24850  eV     1   --> A'             
     e(  7 -  7) =     10.96252  eV     1   --> A''            
     e(  8 -  8) =     10.99423  eV     1   --> A'             
     e(  9 -  9) =     16.11141  eV     1   --> A'             
[...]

 **************************************************************************

 **************************************************************************

                    xk=(  -0.35625,   0.00000,   0.35625  )

     Band symmetry, C_2v (mm2)  point group:

     e(  1 -  1) =     -4.77099  eV     1   --> A_1  D_1  S_1  
     e(  2 -  2) =      1.99658  eV     1   --> B_1  D_3  S_3  
     e(  3 -  3) =      3.41211  eV     1   --> A_1  D_1  S_1  
     e(  4 -  4) =      5.31684  eV     1   --> A_2  D_2  S_2  
     e(  5 -  5) =      8.87550  eV     1   --> B_1  D_3  S_3  
     e(  6 -  6) =      9.61674  eV     1   --> B_2  D_4  S_4  
     e(  7 -  7) =      9.88865  eV     1   --> A_1  D_1  S_1  
     e(  8 -  8) =     11.51114  eV     1   --> B_1  D_3  S_3  
     e(  9 -  9) =     12.02543  eV     1   --> A_2  D_2  S_2  
     e( 10 - 10) =     15.58295  eV     1   --> B_1  D_3  S_3  

 **************************************************************************

 **************************************************************************

                    xk=(  -0.33750,   0.00000,   0.33750  )

     Band symmetry, C_2v (mm2)  point group:

     e(  1 -  1) =     -4.87574  eV     1   --> A_1  D_1  S_1  
     e(  2 -  2) =      2.21236  eV     1   --> B_1  D_3  S_3  
     e(  3 -  3) =      3.57762  eV     1   --> A_1  D_1  S_1  
     e(  4 -  4) =      5.38954  eV     1   --> A_2  D_2  S_2  
     e(  5 -  5) =      8.89887  eV     1   --> B_1  D_3  S_3  
     e(  6 -  6) =      9.50333  eV     1   --> B_2  D_4  S_4  
     e(  7 -  7) =      9.76658  eV     1   --> A_1  D_1  S_1  
     e(  8 -  8) =     11.49844  eV     1   --> B_1  D_3  S_3  
     e(  9 -  9) =     12.03743  eV     1   --> A_2  D_2  S_2  
     e( 10 - 10) =     15.21671  eV     1   --> B_1  D_3  S_3  

 **************************************************************************

 **************************************************************************

                    xk=(  -0.31875,   0.00000,   0.31875  )

     Band symmetry, C_2v (mm2)  point group:

     e(  1 -  1) =     -4.97562  eV     1   --> A_1  D_1  S_1  
     e(  2 -  2) =      2.43311  eV     1   --> B_1  D_3  S_3  
     e(  3 -  3) =      3.74621  eV     1   --> A_1  D_1  S_1  
     e(  4 -  4) =      5.45805  eV     1   --> A_2  D_2  S_2  
     e(  5 -  5) =      8.91198  eV     1   --> B_1  D_3  S_3  
     e(  6 -  6) =      9.39592  eV     1   --> B_2  D_4  S_4  
     e(  7 -  7) =      9.64973  eV     1   --> A_1  D_1  S_1  
     e(  8 -  8) =     11.48725  eV     1   --> B_1  D_3  S_3  
     e(  9 -  9) =     12.06327  eV     1   --> A_2  D_2  S_2  
     e( 10 - 10) =     14.86963  eV     1   --> B_1  D_3  S_3  

 **************************************************************************

 **************************************************************************

                    xk=(  -0.30000,   0.00000,   0.30000  )

     Band symmetry, C_2v (mm2)  point group:

     e(  1 -  1) =     -5.07047  eV     1   --> A_1  D_1  S_1  
     e(  2 -  2) =      2.65861  eV     1   --> B_1  D_3  S_3  
     e(  3 -  3) =      3.91720  eV     1   --> A_1  D_1  S_1  
     e(  4 -  4) =      5.52209  eV     1   --> A_2  D_2  S_2  
     e(  5 -  5) =      8.91581  eV     1   --> B_1  D_3  S_3  
     e(  6 -  6) =      9.29453  eV     1   --> B_2  D_4  S_4  
     e(  7 -  7) =      9.53808  eV     1   --> A_1  D_1  S_1  
     e(  8 -  8) =     11.47096  eV     1   --> B_1  D_3  S_3  
     e(  9 -  9) =     12.10293  eV     1   --> A_2  D_2  S_2  
     e( 10 - 10) =     14.54710  eV     1   --> B_1  D_3  S_3  

 **************************************************************************

 **************************************************************************

                    xk=(  -0.28125,   0.00000,   0.28125  )

     Band symmetry, C_2v (mm2)  point group:

     e(  1 -  1) =     -5.16014  eV     1   --> A_1  D_1  S_1  
     e(  2 -  2) =      2.88861  eV     1   --> B_1  D_3  S_3  
     e(  3 -  3) =      4.08983  eV     1   --> A_1  D_1  S_1  
     e(  4 -  4) =      5.58145  eV     1   --> A_2  D_2  S_2  
     e(  5 -  5) =      8.91162  eV     1   --> B_1  D_3  S_3  
     e(  6 -  6) =      9.19921  eV     1   --> B_2  D_4  S_4  
     e(  7 -  7) =      9.43155  eV     1   --> A_1  D_1  S_1  
     e(  8 -  8) =     11.44113  eV     1   --> B_1  D_3  S_3  
     e(  9 -  9) =     12.15628  eV     1   --> A_2  D_2  S_2  
     e( 10 - 10) =     14.25593  eV     1   --> B_1  D_3  S_3  

 **************************************************************************

 **************************************************************************

                    xk=(  -0.26250,   0.00000,   0.26250  )

     Band symmetry, C_2v (mm2)  point group:

     e(  1 -  1) =     -5.24451  eV     1   --> A_1  D_1  S_1  
     e(  2 -  2) =      3.12276  eV     1   --> B_1  D_3  S_3  
     e(  3 -  3) =      4.26326  eV     1   --> A_1  D_1  S_1  
     e(  4 -  4) =      5.63599  eV     1   --> A_2  D_2  S_2  
     e(  5 -  5) =      8.90079  eV     1   --> B_1  D_3  S_3  
     e(  6 -  6) =      9.10995  eV     1   --> B_2  D_4  S_4  
     e(  7 -  7) =      9.33003  eV     1   --> A_1  D_1  S_1  
     e(  8 -  8) =     11.38799  eV     1   --> B_1  D_3  S_3  
     e(  9 -  9) =     12.22292  eV     1   --> A_2  D_2  S_2  
     e( 10 - 10) =     14.00396  eV     1   --> B_1  D_3  S_3  

 **************************************************************************

 **************************************************************************

                    xk=(  -0.24375,   0.00000,   0.24375  )

     Band symmetry, C_2v (mm2)  point group:

     e(  1 -  1) =     -5.32346  eV     1   --> A_1  D_1  S_1  
     e(  2 -  2) =      3.36067  eV     1   --> B_1  D_3  S_3  
     e(  3 -  3) =      4.43655  eV     1   --> A_1  D_1  S_1  
     e(  4 -  4) =      5.68567  eV     1   --> A_2  D_2  S_2  
     e(  5 -  5) =      8.88470  eV     1   --> B_1  D_3  S_3  
     e(  6 -  6) =      9.02679  eV     1   --> B_2  D_4  S_4  
     e(  7 -  7) =      9.23349  eV     1   --> A_1  D_1  S_1  
     e(  8 -  8) =     11.30197  eV     1   --> B_1  D_3  S_3  
     e(  9 -  9) =     12.30237  eV     1   --> A_2  D_2  S_2  
     e( 10 - 10) =     13.79883  eV     1   --> B_1  D_3  S_3  

 **************************************************************************

 **************************************************************************

                    xk=(  -0.22500,   0.00000,   0.22500  )

     Band symmetry, C_2v (mm2)  point group:

     e(  1 -  1) =     -5.39690  eV     1   --> A_1  D_1  S_1  
     e(  2 -  2) =      3.60181  eV     1   --> B_1  D_3  S_3  
     e(  3 -  3) =      4.60867  eV     1   --> A_1  D_1  S_1  
     e(  4 -  4) =      5.73050  eV     1   --> A_2  D_2  S_2  
     e(  5 -  5) =      8.86467  eV     1   --> B_1  D_3  S_3  
     e(  6 -  6) =      8.94973  eV     1   --> B_2  D_4  S_4  
     e(  7 -  7) =      9.14182  eV     1   --> A_1  D_1  S_1  
     e(  8 -  8) =     11.17643  eV     1   --> B_1  D_3  S_3  
     e(  9 -  9) =     12.39389  eV     1   --> A_2  D_2  S_2  
     e( 10 - 10) =     13.64523  eV     1   --> B_1  D_3  S_3  

 **************************************************************************

 **************************************************************************

                    xk=(  -0.20625,   0.00000,   0.20625  )

     Band symmetry, C_2v (mm2)  point group:

     e(  1 -  1) =     -5.46474  eV     1   --> A_1  D_1  S_1  
     e(  2 -  2) =      3.84555  eV     1   --> B_1  D_3  S_3  
     e(  3 -  3) =      4.77841  eV     1   --> A_1  D_1  S_1  
     e(  4 -  4) =      5.77059  eV     1   --> A_2  D_2  S_2  
     e(  5 -  5) =      8.84185  eV     1   --> B_1  D_3  S_3  
     e(  6 -  6) =      8.87879  eV     1   --> B_2  D_4  S_4  
     e(  7 -  7) =      9.05499  eV     1   --> A_1  D_1  S_1  
     e(  8 -  8) =     11.01036  eV     1   --> B_1  D_3  S_3  
     e(  9 -  9) =     12.49650  eV     1   --> A_2  D_2  S_2  
     e( 10 - 10) =     13.54250  eV     1   --> B_1  D_3  S_3  

 **************************************************************************

 **************************************************************************

                    xk=(  -0.18750,   0.00000,   0.18750  )

     Band symmetry, C_2v (mm2)  point group:

     e(  1 -  1) =     -5.52690  eV     1   --> A_1  D_1  S_1  
     e(  2 -  2) =      4.09102  eV     1   --> B_1  D_3  S_3  
     e(  3 -  3) =      4.94442  eV     1   --> A_1  D_1  S_1  
     e(  4 -  4) =      5.80608  eV     1   --> A_2  D_2  S_2  
     e(  5 -  5) =      8.81398  eV     1   --> B_2  D_4  S_4  
     e(  6 -  6) =      8.81721  eV     1   --> B_1  D_3  S_3  
     e(  7 -  7) =      8.97299  eV     1   --> A_1  D_1  S_1  
     e(  8 -  8) =     10.80878  eV     1   --> B_1  D_3  S_3  
     e(  9 -  9) =     12.60891  eV     1   --> A_2  D_2  S_2  
     e( 10 - 10) =     13.48425  eV     1   --> B_1  D_3  S_3  

 **************************************************************************

 **************************************************************************

                    xk=(  -0.16875,   0.00000,   0.16875  )

     Band symmetry, C_2v (mm2)  point group:

     e(  1 -  1) =     -5.58333  eV     1   --> A_1  D_1  S_1  
     e(  2 -  2) =      4.33708  eV     1   --> B_1  D_3  S_3  
     e(  3 -  3) =      5.10513  eV     1   --> A_1  D_1  S_1  
     e(  4 -  4) =      5.83716  eV     1   --> A_2  D_2  S_2  
     e(  5 -  5) =      8.75531  eV     1   --> B_2  D_4  S_4  
     e(  6 -  6) =      8.79145  eV     1   --> B_1  D_3  S_3  
     e(  7 -  7) =      8.89589  eV     1   --> A_1  D_1  S_1  
     e(  8 -  8) =     10.58063  eV     1   --> B_1  D_3  S_3  
     e(  9 -  9) =     12.72951  eV     1   --> A_2  D_2  S_2  
     e( 10 - 10) =     13.46071  eV     1   --> B_1  D_3  S_3  

 **************************************************************************

 **************************************************************************

                    xk=(  -0.15000,   0.00000,   0.15000  )

     Band symmetry, C_2v (mm2)  point group:

     e(  1 -  1) =     -5.63395  eV     1   --> A_1  D_1  S_1  
     e(  2 -  2) =      4.58220  eV     1   --> B_1  D_3  S_3  
     e(  3 -  3) =      5.25880  eV     1   --> A_1  D_1  S_1  
     e(  4 -  4) =      5.86406  eV     1   --> A_2  D_2  S_2  
     e(  5 -  5) =      8.70279  eV     1   --> B_2  D_4  S_4  
     e(  6 -  6) =      8.76504  eV     1   --> B_1  D_3  S_3  
     e(  7 -  7) =      8.82384  eV     1   --> A_1  D_1  S_1  
     e(  8 -  8) =     10.33609  eV     1   --> B_1  D_3  S_3  
     e(  9 -  9) =     12.85623  eV     1   --> A_2  D_2  S_2  
     e( 10 - 10) =     13.46155  eV     1   --> B_1  D_3  S_3  

 **************************************************************************

 **************************************************************************

                    xk=(  -0.13125,   0.00000,   0.13125  )

     Band symmetry, C_2v (mm2)  point group:

     e(  1 -  1) =     -5.67873  eV     1   --> A_1  D_1  S_1  
     e(  2 -  2) =      4.82426  eV     1   --> B_1  D_3  S_3  
     e(  3 -  3) =      5.40341  eV     1   --> A_1  D_1  S_1  
     e(  4 -  4) =      5.88704  eV     1   --> A_2  D_2  S_2  
     e(  5 -  5) =      8.65644  eV     1   --> B_2  D_4  S_4  
     e(  6 -  6) =      8.73804  eV     1   --> B_1  D_3  S_3  
     e(  7 -  7) =      8.75717  eV     1   --> A_1  D_1  S_1  
     e(  8 -  8) =     10.08506  eV     1   --> B_1  D_3  S_3  
     e(  9 -  9) =     12.98644  eV     1   --> A_2  D_2  S_2  
     e( 10 - 10) =     13.47779  eV     1   --> B_1  D_3  S_3  

 **************************************************************************

 **************************************************************************

                    xk=(  -0.11250,   0.00000,   0.11250  )

     Band symmetry, C_2v (mm2)  point group:

     e(  1 -  1) =     -5.71762  eV     1   --> A_1  D_1  S_1  
     e(  2 -  2) =      5.06025  eV     1   --> B_1  D_3  S_3  
     e(  3 -  3) =      5.53670  eV     1   --> A_1  D_1  S_1  
     e(  4 -  4) =      5.90632  eV     1   --> A_2  D_2  S_2  
     e(  5 -  5) =      8.61625  eV     1   --> B_2  D_4  S_4  
     e(  6 -  6) =      8.69632  eV     1   --> A_1  D_1  S_1  
     e(  7 -  7) =      8.71004  eV     1   --> B_1  D_3  S_3  
     e(  8 -  8) =      9.83709  eV     1   --> B_1  D_3  S_3  
     e(  9 -  9) =     13.11685  eV     1   --> A_2  D_2  S_2  
     e( 10 - 10) =     13.50229  eV     1   --> B_1  D_3  S_3  

 **************************************************************************

 **************************************************************************

                    xk=(  -0.09375,   0.00000,   0.09375  )

     Band symmetry, C_2v (mm2)  point group:

     e(  1 -  1) =     -5.75058  eV     1   --> A_1  D_1  S_1  
     e(  2 -  2) =      5.28590  eV     1   --> B_1  D_3  S_3  
     e(  3 -  3) =      5.65620  eV     1   --> A_1  D_1  S_1  
     e(  4 -  4) =      5.92217  eV     1   --> A_2  D_2  S_2  
     e(  5 -  5) =      8.58223  eV     1   --> B_2  D_4  S_4  
     e(  6 -  6) =      8.64203  eV     1   --> A_1  D_1  S_1  
     e(  7 -  7) =      8.67989  eV     1   --> B_1  D_3  S_3  
     e(  8 -  8) =      9.60211  eV     1   --> B_1  D_3  S_3  
     e(  9 -  9) =     13.24327  eV     1   --> A_2  D_2  S_2  
     e( 10 - 10) =     13.52981  eV     1   --> B_1  D_3  S_3  

 **************************************************************************

 **************************************************************************

                    xk=(  -0.07500,   0.00000,   0.07500  )

     Band symmetry, C_2v (mm2)  point group:

     e(  1 -  1) =     -5.77759  eV     1   --> A_1  D_1  S_1  
     e(  2 -  2) =      5.49505  eV     1   --> B_1  D_3  S_3  
     e(  3 -  3) =      5.75924  eV     1   --> A_1  D_1  S_1  
     e(  4 -  4) =      5.93481  eV     1   --> A_2  D_2  S_2  
     e(  5 -  5) =      8.55439  eV     1   --> B_2  D_4  S_4  
     e(  6 -  6) =      8.59520  eV     1   --> A_1  D_1  S_1  
     e(  7 -  7) =      8.64559  eV     1   --> B_1  D_3  S_3  
     e(  8 -  8) =      9.39149  eV     1   --> B_1  D_3  S_3  
     e(  9 -  9) =     13.36054  eV     1   --> A_2  D_2  S_2  
     e( 10 - 10) =     13.55637  eV     1   --> B_1  D_3  S_3  

 **************************************************************************

 **************************************************************************

                    xk=(  -0.05625,   0.00000,   0.05625  )

     Band symmetry, C_2v (mm2)  point group:

     e(  1 -  1) =     -5.79862  eV     1   --> A_1  D_1  S_1  
     e(  2 -  2) =      5.67900  eV     1   --> B_1  D_3  S_3  
     e(  3 -  3) =      5.84313  eV     1   --> A_1  D_1  S_1  
     e(  4 -  4) =      5.94442  eV     1   --> A_2  D_2  S_2  
     e(  5 -  5) =      8.53275  eV     1   --> B_2  D_4  S_4  
     e(  6 -  6) =      8.55695  eV     1   --> A_1  D_1  S_1  
     e(  7 -  7) =      8.60505  eV     1   --> B_1  D_3  S_3  
     e(  8 -  8) =      9.21830  eV     1   --> B_1  D_3  S_3  
     e(  9 -  9) =     13.46265  eV     1   --> A_2  D_2  S_2  
     e( 10 - 10) =     13.57939  eV     1   --> B_1  D_3  S_3  

 **************************************************************************

 **************************************************************************

                    xk=(  -0.03750,   0.00000,   0.03750  )

     Band symmetry, C_2v (mm2)  point group:

     e(  1 -  1) =     -5.81365  eV     1   --> A_1  D_1  S_1  
     e(  2 -  2) =      5.82609  eV     1   --> B_1  D_3  S_3  
     e(  3 -  3) =      5.90529  eV     1   --> A_1  D_1  S_1  
     e(  4 -  4) =      5.95116  eV     1   --> A_2  D_2  S_2  
     e(  5 -  5) =      8.51728  eV     1   --> B_2  D_4  S_4  
     e(  6 -  6) =      8.52848  eV     1   --> A_1  D_1  S_1  
     e(  7 -  7) =      8.55981  eV     1   --> B_1  D_3  S_3  
     e(  8 -  8) =      9.09421  eV     1   --> B_1  D_3  S_3  
     e(  9 -  9) =     13.54261  eV     1   --> A_2  D_2  S_2  
     e( 10 - 10) =     13.59693  eV     1   --> B_1  D_3  S_3  

 **************************************************************************

 **************************************************************************

                    xk=(  -0.01875,   0.00000,   0.01875  )

     Band symmetry, C_2v (mm2)  point group:

     e(  1 -  1) =     -5.82268  eV     1   --> A_1  D_1  S_1  
     e(  2 -  2) =      5.92263  eV     1   --> B_1  D_3  S_3  
     e(  3 -  3) =      5.94356  eV     1   --> A_1  D_1  S_1  
     e(  4 -  4) =      5.95516  eV     1   --> A_2  D_2  S_2  
     e(  5 -  5) =      8.50800  eV     1   --> B_2  D_4  S_4  
     e(  6 -  6) =      8.51087  eV     1   --> A_1  D_1  S_1  
     e(  7 -  7) =      8.52076  eV     1   --> B_1  D_3  S_3  
     e(  8 -  8) =      9.02301  eV     1   --> B_1  D_3  S_3  
     e(  9 -  9) =     13.59392  eV     1   --> A_2  D_2  S_2  
     e( 10 - 10) =     13.60791  eV     1   --> B_1  D_3  S_3  

 **************************************************************************

 **************************************************************************

                    xk=(   0.00000,   0.00000,   0.00000  )

     point group O_h (m-3m) 
     there are 10 classes
     the character table:

       E     8C3   3C2   6C4   6C2'  i     8S6   3s_h  6S4   6s_d 
A_1g   1.00  1.00  1.00  1.00  1.00  1.00  1.00  1.00  1.00  1.00
A_2g   1.00  1.00  1.00 -1.00 -1.00  1.00  1.00  1.00 -1.00 -1.00
E_g    2.00 -1.00  2.00  0.00  0.00  2.00 -1.00  2.00  0.00  0.00
T_1g   3.00  0.00 -1.00  1.00 -1.00  3.00  0.00 -1.00  1.00 -1.00
T_2g   3.00  0.00 -1.00 -1.00  1.00  3.00  0.00 -1.00 -1.00  1.00
A_1u   1.00  1.00  1.00  1.00  1.00 -1.00 -1.00 -1.00 -1.00 -1.00
A_2u   1.00  1.00  1.00 -1.00 -1.00 -1.00 -1.00 -1.00  1.00  1.00
E_u    2.00 -1.00  2.00  0.00  0.00 -2.00  1.00 -2.00  0.00  0.00
T_1u   3.00  0.00 -1.00  1.00 -1.00 -3.00  0.00  1.00 -1.00  1.00
T_2u   3.00  0.00 -1.00 -1.00  1.00 -3.00  0.00  1.00  1.00 -1.00

     the symmetry operations in each class and the name of the first element:

     E        1
                                                                 
     8C3     17   19   20   18   24   21   22   23
                                                                 
     3C2      2    4    3
                                                                 
     6C4      7    8   15   16   12   11
                                                                 
     6C2'     5    6   14   13   10    9
                                                                 
     i       25
                                                                 
     8S6     41   43   44   42   48   45   46   47
                                                                 
     3s_h    26   28   27
                                                                 
     6S4     31   32   39   40   36   35
                                                                 
     6s_d    29   30   38   37   34   33
                                                                 

     Band symmetry, O_h (m-3m)  point group:

     e(  1 -  1) =     -5.82569  eV     1   --> A_1g G_1   G_1+
     e(  2 -  4) =      5.95649  eV     3   --> T_2g G_25' G_5+
     e(  5 -  7) =      8.50491  eV     3   --> T_1u G_15  G_4-
     e(  8 -  8) =      9.00037  eV     1   --> A_2u G_2'  G_2-
     e(  9 - 10) =     13.61163  eV     2   --> E_u  G_12' G_3-

 **************************************************************************

     BANDS        :      8.78s CPU      8.93s WALL


   This run was terminated on:  11:45:28   9Jun2024            

=------------------------------------------------------------------------------=
   JOB DONE.
=------------------------------------------------------------------------------=
