
     Program PWSCF v.7.2 starts on  9Jun2024 at 11:47:54 

     This program is part of the open-source Quantum ESPRESSO suite
     for quantum simulation of materials; please cite
         "P. Giannozzi et al., J. Phys.:Condens. Matter 21 395502 (2009);
         "P. Giannozzi et al., J. Phys.:Condens. Matter 29 465901 (2017);
         "P. Giannozzi et al., J. Chem. Phys. 152 154105 (2020);
          URL http://www.quantum-espresso.org", 
     in publications or presentations arising from this work. More details at
     http://www.quantum-espresso.org/quote

     Serial version
     8369 MiB available memory on the printing compute node when the environment starts

     Waiting for input...
     Reading input from standard input

     Current dimensions of program PWSCF are:
     Max number of different atomic species (ntypx) = 10
     Max number of k-points (npk) =  40000
     Max angular momentum in pseudopotentials (lmaxx) =  4

     Atomic positions and unit cell read from directory:
     ./SCRATCH/silicon.save/



     G-vector sticks info
     --------------------
     sticks:   dense  smooth     PW     G-vecs:    dense   smooth      PW
     Sum         889     889    265                17453    17453    2891

     Using Slab Decomposition



     bravais-lattice index     =            2
     lattice parameter (alat)  =      10.3512  a.u.
     unit-cell volume          =     277.2753 (a.u.)^3
     number of atoms/cell      =            2
     number of atomic types    =            1
     number of electrons       =         8.00
     number of Kohn-Sham states=           10
     kinetic-energy cutoff     =      60.0000  Ry
     charge density cutoff     =     240.0000  Ry
     Exchange-correlation= PBE
                           (   1   4   3   4   0   0   0)

     celldm(1)=  10.351193  celldm(2)=   0.000000  celldm(3)=   0.000000
     celldm(4)=   0.000000  celldm(5)=   0.000000  celldm(6)=   0.000000

     crystal axes: (cart. coord. in units of alat)
               a(1) = (  -0.500000   0.000000   0.500000 )  
               a(2) = (   0.000000   0.500000   0.500000 )  
               a(3) = (  -0.500000   0.500000   0.000000 )  

     reciprocal axes: (cart. coord. in units 2 pi/alat)
               b(1) = ( -1.000000 -1.000000  1.000000 )  
               b(2) = (  1.000000  1.000000  1.000000 )  
               b(3) = ( -1.000000  1.000000 -1.000000 )  


     PseudoPot. # 1 for Si read from file:
     /home/paolo/project_labqsm/pseudopotentials/Si_ONCV_PBE-1.2.upf
     MD5 check sum: 7f029a58b69e3aa87b46a36c608bf45e
     Pseudo is Norm-conserving, Zval =  4.0
     Generated using ONCVPSP code by D. R. Hamann
     Using radial grid of  602 points,  4 beta functions with: 
                l(1) =   0
                l(2) =   0
                l(3) =   1
                l(4) =   1

     atomic species   valence    mass     pseudopotential
        Si             4.00    28.08500     Si( 1.00)

     48 Sym. Ops., with inversion, found (24 have fractional translation)


                                    s                        frac. trans.

      isym =  1     identity                                     

 cryst.   s( 1) = (     1          0          0      )
                  (     0          1          0      )
                  (     0          0          1      )

 cart.    s( 1) = (  1.0000000  0.0000000  0.0000000 )
                  (  0.0000000  1.0000000  0.0000000 )
                  (  0.0000000  0.0000000  1.0000000 )


      isym =  2     180 deg rotation - cart. axis [0,0,1]        

 cryst.   s( 2) = (     0          1         -1      )
                  (     1          0         -1      )
                  (     0          0         -1      )

 cart.    s( 2) = ( -1.0000000  0.0000000  0.0000000 )
                  (  0.0000000 -1.0000000  0.0000000 )
                  (  0.0000000  0.0000000  1.0000000 )


      isym =  3     180 deg rotation - cart. axis [0,1,0]        

 cryst.   s( 3) = (    -1          0          0      )
                  (    -1          0          1      )
                  (    -1          1          0      )

 cart.    s( 3) = ( -1.0000000  0.0000000  0.0000000 )
                  (  0.0000000  1.0000000  0.0000000 )
                  (  0.0000000  0.0000000 -1.0000000 )


      isym =  4     180 deg rotation - cart. axis [1,0,0]        

 cryst.   s( 4) = (     0         -1          1      )
                  (     0         -1          0      )
                  (     1         -1          0      )

 cart.    s( 4) = (  1.0000000  0.0000000  0.0000000 )
                  (  0.0000000 -1.0000000  0.0000000 )
                  (  0.0000000  0.0000000 -1.0000000 )


      isym =  5     180 deg rotation - cart. axis [1,1,0]        

 cryst.   s( 5) = (     0         -1          0      )    f =(  0.2500000 )
                  (    -1          0          0      )       (  0.2500000 )
                  (     0          0         -1      )       (  0.2500000 )

 cart.    s( 5) = (  0.0000000  1.0000000  0.0000000 )    f =( -0.2500000 )
                  (  1.0000000  0.0000000  0.0000000 )       (  0.2500000 )
                  (  0.0000000  0.0000000 -1.0000000 )       (  0.2500000 )


      isym =  6     180 deg rotation - cart. axis [1,-1,0]       

 cryst.   s( 6) = (    -1          0          1      )    f =(  0.2500000 )
                  (     0         -1          1      )       (  0.2500000 )
                  (     0          0          1      )       (  0.2500000 )

 cart.    s( 6) = (  0.0000000 -1.0000000  0.0000000 )    f =( -0.2500000 )
                  ( -1.0000000  0.0000000  0.0000000 )       (  0.2500000 )
                  (  0.0000000  0.0000000 -1.0000000 )       (  0.2500000 )


      isym =  7      90 deg rotation - cart. axis [0,0,-1]       

 cryst.   s( 7) = (     0          1          0      )    f =(  0.2500000 )
                  (     0          1         -1      )       (  0.2500000 )
                  (    -1          1          0      )       (  0.2500000 )

 cart.    s( 7) = (  0.0000000  1.0000000  0.0000000 )    f =( -0.2500000 )
                  ( -1.0000000  0.0000000  0.0000000 )       (  0.2500000 )
                  (  0.0000000  0.0000000  1.0000000 )       (  0.2500000 )


      isym =  8      90 deg rotation - cart. axis [0,0,1]        

 cryst.   s( 8) = (     1          0         -1      )    f =(  0.2500000 )
                  (     1          0          0      )       (  0.2500000 )
                  (     1         -1          0      )       (  0.2500000 )

 cart.    s( 8) = (  0.0000000 -1.0000000  0.0000000 )    f =( -0.2500000 )
                  (  1.0000000  0.0000000  0.0000000 )       (  0.2500000 )
                  (  0.0000000  0.0000000  1.0000000 )       (  0.2500000 )


      isym =  9     180 deg rotation - cart. axis [1,0,1]        

 cryst.   s( 9) = (    -1          0          0      )    f =(  0.2500000 )
                  (     0          0         -1      )       (  0.2500000 )
                  (     0         -1          0      )       (  0.2500000 )

 cart.    s( 9) = (  0.0000000  0.0000000  1.0000000 )    f =( -0.2500000 )
                  (  0.0000000 -1.0000000  0.0000000 )       (  0.2500000 )
                  (  1.0000000  0.0000000  0.0000000 )       (  0.2500000 )


      isym = 10     180 deg rotation - cart. axis [-1,0,1]       

 cryst.   s(10) = (     1          0          0      )    f =(  0.2500000 )
                  (     1         -1          0      )       (  0.2500000 )
                  (     1          0         -1      )       (  0.2500000 )

 cart.    s(10) = (  0.0000000  0.0000000 -1.0000000 )    f =( -0.2500000 )
                  (  0.0000000 -1.0000000  0.0000000 )       (  0.2500000 )
                  ( -1.0000000  0.0000000  0.0000000 )       (  0.2500000 )


      isym = 11      90 deg rotation - cart. axis [0,1,0]        

 cryst.   s(11) = (     0          1         -1      )    f =(  0.2500000 )
                  (    -1          1          0      )       (  0.2500000 )
                  (     0          1          0      )       (  0.2500000 )

 cart.    s(11) = (  0.0000000  0.0000000  1.0000000 )    f =( -0.2500000 )
                  (  0.0000000  1.0000000  0.0000000 )       (  0.2500000 )
                  ( -1.0000000  0.0000000  0.0000000 )       (  0.2500000 )


      isym = 12      90 deg rotation - cart. axis [0,-1,0]       

 cryst.   s(12) = (     0         -1          1      )    f =(  0.2500000 )
                  (     0          0          1      )       (  0.2500000 )
                  (    -1          0          1      )       (  0.2500000 )

 cart.    s(12) = (  0.0000000  0.0000000 -1.0000000 )    f =( -0.2500000 )
                  (  0.0000000  1.0000000  0.0000000 )       (  0.2500000 )
                  (  1.0000000  0.0000000  0.0000000 )       (  0.2500000 )


      isym = 13     180 deg rotation - cart. axis [0,1,1]        

 cryst.   s(13) = (    -1          1          0      )    f =(  0.2500000 )
                  (     0          1          0      )       (  0.2500000 )
                  (     0          1         -1      )       (  0.2500000 )

 cart.    s(13) = ( -1.0000000  0.0000000  0.0000000 )    f =( -0.2500000 )
                  (  0.0000000  0.0000000  1.0000000 )       (  0.2500000 )
                  (  0.0000000  1.0000000  0.0000000 )       (  0.2500000 )


      isym = 14     180 deg rotation - cart. axis [0,1,-1]       

 cryst.   s(14) = (     0          0         -1      )    f =(  0.2500000 )
                  (     0         -1          0      )       (  0.2500000 )
                  (    -1          0          0      )       (  0.2500000 )

 cart.    s(14) = ( -1.0000000  0.0000000  0.0000000 )    f =( -0.2500000 )
                  (  0.0000000  0.0000000 -1.0000000 )       (  0.2500000 )
                  (  0.0000000 -1.0000000  0.0000000 )       (  0.2500000 )


      isym = 15      90 deg rotation - cart. axis [-1,0,0]       

 cryst.   s(15) = (     0          0          1      )    f =(  0.2500000 )
                  (    -1          0          1      )       (  0.2500000 )
                  (     0         -1          1      )       (  0.2500000 )

 cart.    s(15) = (  1.0000000  0.0000000  0.0000000 )    f =( -0.2500000 )
                  (  0.0000000  0.0000000  1.0000000 )       (  0.2500000 )
                  (  0.0000000 -1.0000000  0.0000000 )       (  0.2500000 )


      isym = 16      90 deg rotation - cart. axis [1,0,0]        

 cryst.   s(16) = (     1         -1          0      )    f =(  0.2500000 )
                  (     1          0         -1      )       (  0.2500000 )
                  (     1          0          0      )       (  0.2500000 )

 cart.    s(16) = (  1.0000000  0.0000000  0.0000000 )    f =( -0.2500000 )
                  (  0.0000000  0.0000000 -1.0000000 )       (  0.2500000 )
                  (  0.0000000  1.0000000  0.0000000 )       (  0.2500000 )


      isym = 17     120 deg rotation - cart. axis [-1,-1,-1]     

 cryst.   s(17) = (    -1          0          1      )
                  (    -1          1          0      )
                  (    -1          0          0      )

 cart.    s(17) = (  0.0000000  1.0000000  0.0000000 )
                  (  0.0000000  0.0000000  1.0000000 )
                  (  1.0000000  0.0000000  0.0000000 )


      isym = 18     120 deg rotation - cart. axis [-1,1,1]       

 cryst.   s(18) = (     0          1          0      )
                  (     0          0          1      )
                  (     1          0          0      )

 cart.    s(18) = (  0.0000000 -1.0000000  0.0000000 )
                  (  0.0000000  0.0000000  1.0000000 )
                  ( -1.0000000  0.0000000  0.0000000 )


      isym = 19     120 deg rotation - cart. axis [1,1,-1]       

 cryst.   s(19) = (     1          0         -1      )
                  (     0          0         -1      )
                  (     0          1         -1      )

 cart.    s(19) = (  0.0000000  1.0000000  0.0000000 )
                  (  0.0000000  0.0000000 -1.0000000 )
                  ( -1.0000000  0.0000000  0.0000000 )


      isym = 20     120 deg rotation - cart. axis [1,-1,1]       

 cryst.   s(20) = (     0         -1          0      )
                  (     1         -1          0      )
                  (     0         -1          1      )

 cart.    s(20) = (  0.0000000 -1.0000000  0.0000000 )
                  (  0.0000000  0.0000000 -1.0000000 )
                  (  1.0000000  0.0000000  0.0000000 )


      isym = 21     120 deg rotation - cart. axis [1,1,1]        

 cryst.   s(21) = (     0          0         -1      )
                  (     0          1         -1      )
                  (     1          0         -1      )

 cart.    s(21) = (  0.0000000  0.0000000  1.0000000 )
                  (  1.0000000  0.0000000  0.0000000 )
                  (  0.0000000  1.0000000  0.0000000 )


      isym = 22     120 deg rotation - cart. axis [-1,1,-1]      

 cryst.   s(22) = (    -1          1          0      )
                  (    -1          0          0      )
                  (    -1          0          1      )

 cart.    s(22) = (  0.0000000  0.0000000  1.0000000 )
                  ( -1.0000000  0.0000000  0.0000000 )
                  (  0.0000000 -1.0000000  0.0000000 )


      isym = 23     120 deg rotation - cart. axis [1,-1,-1]      

 cryst.   s(23) = (     0          0          1      )
                  (     1          0          0      )
                  (     0          1          0      )

 cart.    s(23) = (  0.0000000  0.0000000 -1.0000000 )
                  ( -1.0000000  0.0000000  0.0000000 )
                  (  0.0000000  1.0000000  0.0000000 )


      isym = 24     120 deg rotation - cart. axis [-1,-1,1]      

 cryst.   s(24) = (     1         -1          0      )
                  (     0         -1          1      )
                  (     0         -1          0      )

 cart.    s(24) = (  0.0000000  0.0000000 -1.0000000 )
                  (  1.0000000  0.0000000  0.0000000 )
                  (  0.0000000 -1.0000000  0.0000000 )


      isym = 25     inversion                                    

 cryst.   s(25) = (    -1          0          0      )    f =(  0.2500000 )
                  (     0         -1          0      )       (  0.2500000 )
                  (     0          0         -1      )       (  0.2500000 )

 cart.    s(25) = ( -1.0000000  0.0000000  0.0000000 )    f =( -0.2500000 )
                  (  0.0000000 -1.0000000  0.0000000 )       (  0.2500000 )
                  (  0.0000000  0.0000000 -1.0000000 )       (  0.2500000 )


      isym = 26     inv. 180 deg rotation - cart. axis [0,0,1]   

 cryst.   s(26) = (     0         -1          1      )    f =(  0.2500000 )
                  (    -1          0          1      )       (  0.2500000 )
                  (     0          0          1      )       (  0.2500000 )

 cart.    s(26) = (  1.0000000  0.0000000  0.0000000 )    f =( -0.2500000 )
                  (  0.0000000  1.0000000  0.0000000 )       (  0.2500000 )
                  (  0.0000000  0.0000000 -1.0000000 )       (  0.2500000 )


      isym = 27     inv. 180 deg rotation - cart. axis [0,1,0]   

 cryst.   s(27) = (     1          0          0      )    f =(  0.2500000 )
                  (     1          0         -1      )       (  0.2500000 )
                  (     1         -1          0      )       (  0.2500000 )

 cart.    s(27) = (  1.0000000  0.0000000  0.0000000 )    f =( -0.2500000 )
                  (  0.0000000 -1.0000000  0.0000000 )       (  0.2500000 )
                  (  0.0000000  0.0000000  1.0000000 )       (  0.2500000 )


      isym = 28     inv. 180 deg rotation - cart. axis [1,0,0]   

 cryst.   s(28) = (     0          1         -1      )    f =(  0.2500000 )
                  (     0          1          0      )       (  0.2500000 )
                  (    -1          1          0      )       (  0.2500000 )

 cart.    s(28) = ( -1.0000000  0.0000000  0.0000000 )    f =( -0.2500000 )
                  (  0.0000000  1.0000000  0.0000000 )       (  0.2500000 )
                  (  0.0000000  0.0000000  1.0000000 )       (  0.2500000 )


      isym = 29     inv. 180 deg rotation - cart. axis [1,1,0]   

 cryst.   s(29) = (     0          1          0      )
                  (     1          0          0      )
                  (     0          0          1      )

 cart.    s(29) = (  0.0000000 -1.0000000  0.0000000 )
                  ( -1.0000000  0.0000000  0.0000000 )
                  (  0.0000000  0.0000000  1.0000000 )


      isym = 30     inv. 180 deg rotation - cart. axis [1,-1,0]  

 cryst.   s(30) = (     1          0         -1      )
                  (     0          1         -1      )
                  (     0          0         -1      )

 cart.    s(30) = (  0.0000000  1.0000000  0.0000000 )
                  (  1.0000000  0.0000000  0.0000000 )
                  (  0.0000000  0.0000000  1.0000000 )


      isym = 31     inv.  90 deg rotation - cart. axis [0,0,-1]  

 cryst.   s(31) = (     0         -1          0      )
                  (     0         -1          1      )
                  (     1         -1          0      )

 cart.    s(31) = (  0.0000000 -1.0000000  0.0000000 )
                  (  1.0000000  0.0000000  0.0000000 )
                  (  0.0000000  0.0000000 -1.0000000 )


      isym = 32     inv.  90 deg rotation - cart. axis [0,0,1]   

 cryst.   s(32) = (    -1          0          1      )
                  (    -1          0          0      )
                  (    -1          1          0      )

 cart.    s(32) = (  0.0000000  1.0000000  0.0000000 )
                  ( -1.0000000  0.0000000  0.0000000 )
                  (  0.0000000  0.0000000 -1.0000000 )


      isym = 33     inv. 180 deg rotation - cart. axis [1,0,1]   

 cryst.   s(33) = (     1          0          0      )
                  (     0          0          1      )
                  (     0          1          0      )

 cart.    s(33) = (  0.0000000  0.0000000 -1.0000000 )
                  (  0.0000000  1.0000000  0.0000000 )
                  ( -1.0000000  0.0000000  0.0000000 )


      isym = 34     inv. 180 deg rotation - cart. axis [-1,0,1]  

 cryst.   s(34) = (    -1          0          0      )
                  (    -1          1          0      )
                  (    -1          0          1      )

 cart.    s(34) = (  0.0000000  0.0000000  1.0000000 )
                  (  0.0000000  1.0000000  0.0000000 )
                  (  1.0000000  0.0000000  0.0000000 )


      isym = 35     inv.  90 deg rotation - cart. axis [0,1,0]   

 cryst.   s(35) = (     0         -1          1      )
                  (     1         -1          0      )
                  (     0         -1          0      )

 cart.    s(35) = (  0.0000000  0.0000000 -1.0000000 )
                  (  0.0000000 -1.0000000  0.0000000 )
                  (  1.0000000  0.0000000  0.0000000 )


      isym = 36     inv.  90 deg rotation - cart. axis [0,-1,0]  

 cryst.   s(36) = (     0          1         -1      )
                  (     0          0         -1      )
                  (     1          0         -1      )

 cart.    s(36) = (  0.0000000  0.0000000  1.0000000 )
                  (  0.0000000 -1.0000000  0.0000000 )
                  ( -1.0000000  0.0000000  0.0000000 )


      isym = 37     inv. 180 deg rotation - cart. axis [0,1,1]   

 cryst.   s(37) = (     1         -1          0      )
                  (     0         -1          0      )
                  (     0         -1          1      )

 cart.    s(37) = (  1.0000000  0.0000000  0.0000000 )
                  (  0.0000000  0.0000000 -1.0000000 )
                  (  0.0000000 -1.0000000  0.0000000 )


      isym = 38     inv. 180 deg rotation - cart. axis [0,1,-1]  

 cryst.   s(38) = (     0          0          1      )
                  (     0          1          0      )
                  (     1          0          0      )

 cart.    s(38) = (  1.0000000  0.0000000  0.0000000 )
                  (  0.0000000  0.0000000  1.0000000 )
                  (  0.0000000  1.0000000  0.0000000 )


      isym = 39     inv.  90 deg rotation - cart. axis [-1,0,0]  

 cryst.   s(39) = (     0          0         -1      )
                  (     1          0         -1      )
                  (     0          1         -1      )

 cart.    s(39) = ( -1.0000000  0.0000000  0.0000000 )
                  (  0.0000000  0.0000000 -1.0000000 )
                  (  0.0000000  1.0000000  0.0000000 )


      isym = 40     inv.  90 deg rotation - cart. axis [1,0,0]   

 cryst.   s(40) = (    -1          1          0      )
                  (    -1          0          1      )
                  (    -1          0          0      )

 cart.    s(40) = ( -1.0000000  0.0000000  0.0000000 )
                  (  0.0000000  0.0000000  1.0000000 )
                  (  0.0000000 -1.0000000  0.0000000 )


      isym = 41     inv. 120 deg rotation - cart. axis [-1,-1,-1]

 cryst.   s(41) = (     1          0         -1      )    f =(  0.2500000 )
                  (     1         -1          0      )       (  0.2500000 )
                  (     1          0          0      )       (  0.2500000 )

 cart.    s(41) = (  0.0000000 -1.0000000  0.0000000 )    f =( -0.2500000 )
                  (  0.0000000  0.0000000 -1.0000000 )       (  0.2500000 )
                  ( -1.0000000  0.0000000  0.0000000 )       (  0.2500000 )


      isym = 42     inv. 120 deg rotation - cart. axis [-1,1,1]  

 cryst.   s(42) = (     0         -1          0      )    f =(  0.2500000 )
                  (     0          0         -1      )       (  0.2500000 )
                  (    -1          0          0      )       (  0.2500000 )

 cart.    s(42) = (  0.0000000  1.0000000  0.0000000 )    f =( -0.2500000 )
                  (  0.0000000  0.0000000 -1.0000000 )       (  0.2500000 )
                  (  1.0000000  0.0000000  0.0000000 )       (  0.2500000 )


      isym = 43     inv. 120 deg rotation - cart. axis [1,1,-1]  

 cryst.   s(43) = (    -1          0          1      )    f =(  0.2500000 )
                  (     0          0          1      )       (  0.2500000 )
                  (     0         -1          1      )       (  0.2500000 )

 cart.    s(43) = (  0.0000000 -1.0000000  0.0000000 )    f =( -0.2500000 )
                  (  0.0000000  0.0000000  1.0000000 )       (  0.2500000 )
                  (  1.0000000  0.0000000  0.0000000 )       (  0.2500000 )


      isym = 44     inv. 120 deg rotation - cart. axis [1,-1,1]  

 cryst.   s(44) = (     0          1          0      )    f =(  0.2500000 )
                  (    -1          1          0      )       (  0.2500000 )
                  (     0          1         -1      )       (  0.2500000 )

 cart.    s(44) = (  0.0000000  1.0000000  0.0000000 )    f =( -0.2500000 )
                  (  0.0000000  0.0000000  1.0000000 )       (  0.2500000 )
                  ( -1.0000000  0.0000000  0.0000000 )       (  0.2500000 )


      isym = 45     inv. 120 deg rotation - cart. axis [1,1,1]   

 cryst.   s(45) = (     0          0          1      )    f =(  0.2500000 )
                  (     0         -1          1      )       (  0.2500000 )
                  (    -1          0          1      )       (  0.2500000 )

 cart.    s(45) = (  0.0000000  0.0000000 -1.0000000 )    f =( -0.2500000 )
                  ( -1.0000000  0.0000000  0.0000000 )       (  0.2500000 )
                  (  0.0000000 -1.0000000  0.0000000 )       (  0.2500000 )


      isym = 46     inv. 120 deg rotation - cart. axis [-1,1,-1] 

 cryst.   s(46) = (     1         -1          0      )    f =(  0.2500000 )
                  (     1          0          0      )       (  0.2500000 )
                  (     1          0         -1      )       (  0.2500000 )

 cart.    s(46) = (  0.0000000  0.0000000 -1.0000000 )    f =( -0.2500000 )
                  (  1.0000000  0.0000000  0.0000000 )       (  0.2500000 )
                  (  0.0000000  1.0000000  0.0000000 )       (  0.2500000 )


      isym = 47     inv. 120 deg rotation - cart. axis [1,-1,-1] 

 cryst.   s(47) = (     0          0         -1      )    f =(  0.2500000 )
                  (    -1          0          0      )       (  0.2500000 )
                  (     0         -1          0      )       (  0.2500000 )

 cart.    s(47) = (  0.0000000  0.0000000  1.0000000 )    f =( -0.2500000 )
                  (  1.0000000  0.0000000  0.0000000 )       (  0.2500000 )
                  (  0.0000000 -1.0000000  0.0000000 )       (  0.2500000 )


      isym = 48     inv. 120 deg rotation - cart. axis [-1,-1,1] 

 cryst.   s(48) = (    -1          1          0      )    f =(  0.2500000 )
                  (     0          1         -1      )       (  0.2500000 )
                  (     0          1          0      )       (  0.2500000 )

 cart.    s(48) = (  0.0000000  0.0000000  1.0000000 )    f =( -0.2500000 )
                  ( -1.0000000  0.0000000  0.0000000 )       (  0.2500000 )
                  (  0.0000000  1.0000000  0.0000000 )       (  0.2500000 )


     point group O_h (m-3m) 
     there are 10 classes
     the character table:

       E     8C3   3C2   6C4   6C2'  i     8S6   3s_h  6S4   6s_d 
A_1g   1.00  1.00  1.00  1.00  1.00  1.00  1.00  1.00  1.00  1.00
A_2g   1.00  1.00  1.00 -1.00 -1.00  1.00  1.00  1.00 -1.00 -1.00
E_g    2.00 -1.00  2.00  0.00  0.00  2.00 -1.00  2.00  0.00  0.00
T_1g   3.00  0.00 -1.00  1.00 -1.00  3.00  0.00 -1.00  1.00 -1.00
T_2g   3.00  0.00 -1.00 -1.00  1.00  3.00  0.00 -1.00 -1.00  1.00
A_1u   1.00  1.00  1.00  1.00  1.00 -1.00 -1.00 -1.00 -1.00 -1.00
A_2u   1.00  1.00  1.00 -1.00 -1.00 -1.00 -1.00 -1.00  1.00  1.00
E_u    2.00 -1.00  2.00  0.00  0.00 -2.00  1.00 -2.00  0.00  0.00
T_1u   3.00  0.00 -1.00  1.00 -1.00 -3.00  0.00  1.00 -1.00  1.00
T_2u   3.00  0.00 -1.00 -1.00  1.00 -3.00  0.00  1.00  1.00 -1.00

     the symmetry operations in each class and the name of the first element:

     E        1
          identity                                               
     8C3     17   19   20   18   24   21   22   23
          120 deg rotation - cart. axis [-1,-1,-1]               
     3C2      2    4    3
          180 deg rotation - cart. axis [0,0,1]                  
     6C4      7    8   15   16   12   11
           90 deg rotation - cart. axis [0,0,-1]                 
     6C2'     5    6   14   13   10    9
          180 deg rotation - cart. axis [1,1,0]                  
     i       25
          inversion                                              
     8S6     41   43   44   42   48   45   46   47
          inv. 120 deg rotation - cart. axis [-1,-1,-1]          
     3s_h    26   28   27
          inv. 180 deg rotation - cart. axis [0,0,1]             
     6S4     31   32   39   40   36   35
          inv.  90 deg rotation - cart. axis [0,0,-1]            
     6s_d    29   30   38   37   34   33
          inv. 180 deg rotation - cart. axis [1,1,0]             

   Cartesian axes

     site n.     atom                  positions (alat units)
         1           Si  tau(   1) = (   0.0000000   0.0000000   0.0000000  )
         2           Si  tau(   2) = (   0.2500000   0.2500000   0.2500000  )

   Crystallographic axes

     site n.     atom                  positions (cryst. coord.)
         1           Si  tau(   1) = (  0.0000000  0.0000000  0.0000000  )
         2           Si  tau(   2) = ( -0.2500000  0.7500000 -0.2500000  )

     number of k points=   256
                       cart. coord. in units 2pi/alat
        k(    1) = (   0.0000000   0.0000000   0.0000000), wk =   0.0002500
        k(    2) = (  -0.0500000   0.0500000  -0.0500000), wk =   0.0020000
        k(    3) = (  -0.1000000   0.1000000  -0.1000000), wk =   0.0020000
        k(    4) = (  -0.1500000   0.1500000  -0.1500000), wk =   0.0020000
        k(    5) = (  -0.2000000   0.2000000  -0.2000000), wk =   0.0020000
        k(    6) = (  -0.2500000   0.2500000  -0.2500000), wk =   0.0020000
        k(    7) = (  -0.3000000   0.3000000  -0.3000000), wk =   0.0020000
        k(    8) = (  -0.3500000   0.3500000  -0.3500000), wk =   0.0020000
        k(    9) = (  -0.4000000   0.4000000  -0.4000000), wk =   0.0020000
        k(   10) = (  -0.4500000   0.4500000  -0.4500000), wk =   0.0020000
        k(   11) = (   0.5000000  -0.5000000   0.5000000), wk =   0.0010000
        k(   12) = (   0.0000000   0.1000000   0.0000000), wk =   0.0015000
        k(   13) = (  -0.0500000   0.1500000  -0.0500000), wk =   0.0060000
        k(   14) = (  -0.1000000   0.2000000  -0.1000000), wk =   0.0060000
        k(   15) = (  -0.1500000   0.2500000  -0.1500000), wk =   0.0060000
        k(   16) = (  -0.2000000   0.3000000  -0.2000000), wk =   0.0060000
        k(   17) = (  -0.2500000   0.3500000  -0.2500000), wk =   0.0060000
        k(   18) = (  -0.3000000   0.4000000  -0.3000000), wk =   0.0060000
        k(   19) = (  -0.3500000   0.4500000  -0.3500000), wk =   0.0060000
        k(   20) = (  -0.4000000   0.5000000  -0.4000000), wk =   0.0060000
        k(   21) = (   0.5500000  -0.4500000   0.5500000), wk =   0.0060000
        k(   22) = (   0.5000000  -0.4000000   0.5000000), wk =   0.0060000
        k(   23) = (   0.4500000  -0.3500000   0.4500000), wk =   0.0060000
        k(   24) = (   0.4000000  -0.3000000   0.4000000), wk =   0.0060000
        k(   25) = (   0.3500000  -0.2500000   0.3500000), wk =   0.0060000
        k(   26) = (   0.3000000  -0.2000000   0.3000000), wk =   0.0060000
        k(   27) = (   0.2500000  -0.1500000   0.2500000), wk =   0.0060000
        k(   28) = (   0.2000000  -0.1000000   0.2000000), wk =   0.0060000
        k(   29) = (   0.1500000  -0.0500000   0.1500000), wk =   0.0060000
        k(   30) = (   0.1000000  -0.0000000   0.1000000), wk =   0.0030000
        k(   31) = (   0.0000000   0.2000000   0.0000000), wk =   0.0015000
        k(   32) = (  -0.0500000   0.2500000  -0.0500000), wk =   0.0060000
        k(   33) = (  -0.1000000   0.3000000  -0.1000000), wk =   0.0060000
        k(   34) = (  -0.1500000   0.3500000  -0.1500000), wk =   0.0060000
        k(   35) = (  -0.2000000   0.4000000  -0.2000000), wk =   0.0060000
        k(   36) = (  -0.2500000   0.4500000  -0.2500000), wk =   0.0060000
        k(   37) = (  -0.3000000   0.5000000  -0.3000000), wk =   0.0060000
        k(   38) = (  -0.3500000   0.5500000  -0.3500000), wk =   0.0060000
        k(   39) = (   0.6000000  -0.4000000   0.6000000), wk =   0.0060000
        k(   40) = (   0.5500000  -0.3500000   0.5500000), wk =   0.0060000
        k(   41) = (   0.5000000  -0.3000000   0.5000000), wk =   0.0060000
        k(   42) = (   0.4500000  -0.2500000   0.4500000), wk =   0.0060000
        k(   43) = (   0.4000000  -0.2000000   0.4000000), wk =   0.0060000
        k(   44) = (   0.3500000  -0.1500000   0.3500000), wk =   0.0060000
        k(   45) = (   0.3000000  -0.1000000   0.3000000), wk =   0.0060000
        k(   46) = (   0.2500000  -0.0500000   0.2500000), wk =   0.0060000
        k(   47) = (   0.2000000   0.0000000   0.2000000), wk =   0.0030000
        k(   48) = (   0.0000000   0.3000000   0.0000000), wk =   0.0015000
        k(   49) = (  -0.0500000   0.3500000  -0.0500000), wk =   0.0060000
        k(   50) = (  -0.1000000   0.4000000  -0.1000000), wk =   0.0060000
        k(   51) = (  -0.1500000   0.4500000  -0.1500000), wk =   0.0060000
        k(   52) = (  -0.2000000   0.5000000  -0.2000000), wk =   0.0060000
        k(   53) = (  -0.2500000   0.5500000  -0.2500000), wk =   0.0060000
        k(   54) = (  -0.3000000   0.6000000  -0.3000000), wk =   0.0060000
        k(   55) = (   0.6500000  -0.3500000   0.6500000), wk =   0.0060000
        k(   56) = (   0.6000000  -0.3000000   0.6000000), wk =   0.0060000
        k(   57) = (   0.5500000  -0.2500000   0.5500000), wk =   0.0060000
        k(   58) = (   0.5000000  -0.2000000   0.5000000), wk =   0.0060000
        k(   59) = (   0.4500000  -0.1500000   0.4500000), wk =   0.0060000
        k(   60) = (   0.4000000  -0.1000000   0.4000000), wk =   0.0060000
        k(   61) = (   0.3500000  -0.0500000   0.3500000), wk =   0.0060000
        k(   62) = (   0.3000000  -0.0000000   0.3000000), wk =   0.0030000
        k(   63) = (   0.0000000   0.4000000   0.0000000), wk =   0.0015000
        k(   64) = (  -0.0500000   0.4500000  -0.0500000), wk =   0.0060000
        k(   65) = (  -0.1000000   0.5000000  -0.1000000), wk =   0.0060000
        k(   66) = (  -0.1500000   0.5500000  -0.1500000), wk =   0.0060000
        k(   67) = (  -0.2000000   0.6000000  -0.2000000), wk =   0.0060000
        k(   68) = (  -0.2500000   0.6500000  -0.2500000), wk =   0.0060000
        k(   69) = (   0.7000000  -0.3000000   0.7000000), wk =   0.0060000
        k(   70) = (   0.6500000  -0.2500000   0.6500000), wk =   0.0060000
        k(   71) = (   0.6000000  -0.2000000   0.6000000), wk =   0.0060000
        k(   72) = (   0.5500000  -0.1500000   0.5500000), wk =   0.0060000
        k(   73) = (   0.5000000  -0.1000000   0.5000000), wk =   0.0060000
        k(   74) = (   0.4500000  -0.0500000   0.4500000), wk =   0.0060000
        k(   75) = (   0.4000000   0.0000000   0.4000000), wk =   0.0030000
        k(   76) = (   0.0000000   0.5000000   0.0000000), wk =   0.0015000
        k(   77) = (  -0.0500000   0.5500000  -0.0500000), wk =   0.0060000
        k(   78) = (  -0.1000000   0.6000000  -0.1000000), wk =   0.0060000
        k(   79) = (  -0.1500000   0.6500000  -0.1500000), wk =   0.0060000
        k(   80) = (  -0.2000000   0.7000000  -0.2000000), wk =   0.0060000
        k(   81) = (   0.7500000  -0.2500000   0.7500000), wk =   0.0060000
        k(   82) = (   0.7000000  -0.2000000   0.7000000), wk =   0.0060000
        k(   83) = (   0.6500000  -0.1500000   0.6500000), wk =   0.0060000
        k(   84) = (   0.6000000  -0.1000000   0.6000000), wk =   0.0060000
        k(   85) = (   0.5500000  -0.0500000   0.5500000), wk =   0.0060000
        k(   86) = (   0.5000000   0.0000000   0.5000000), wk =   0.0030000
        k(   87) = (   0.0000000   0.6000000   0.0000000), wk =   0.0015000
        k(   88) = (  -0.0500000   0.6500000  -0.0500000), wk =   0.0060000
        k(   89) = (  -0.1000000   0.7000000  -0.1000000), wk =   0.0060000
        k(   90) = (  -0.1500000   0.7500000  -0.1500000), wk =   0.0060000
        k(   91) = (   0.8000000  -0.2000000   0.8000000), wk =   0.0060000
        k(   92) = (   0.7500000  -0.1500000   0.7500000), wk =   0.0060000
        k(   93) = (   0.7000000  -0.1000000   0.7000000), wk =   0.0060000
        k(   94) = (   0.6500000  -0.0500000   0.6500000), wk =   0.0060000
        k(   95) = (   0.6000000  -0.0000000   0.6000000), wk =   0.0030000
        k(   96) = (   0.0000000   0.7000000   0.0000000), wk =   0.0015000
        k(   97) = (  -0.0500000   0.7500000  -0.0500000), wk =   0.0060000
        k(   98) = (  -0.1000000   0.8000000  -0.1000000), wk =   0.0060000
        k(   99) = (   0.8500000  -0.1500000   0.8500000), wk =   0.0060000
        k(  100) = (   0.8000000  -0.1000000   0.8000000), wk =   0.0060000
        k(  101) = (   0.7500000  -0.0500000   0.7500000), wk =   0.0060000
        k(  102) = (   0.7000000   0.0000000   0.7000000), wk =   0.0030000
        k(  103) = (   0.0000000   0.8000000   0.0000000), wk =   0.0015000
        k(  104) = (  -0.0500000   0.8500000  -0.0500000), wk =   0.0060000
        k(  105) = (   0.9000000  -0.1000000   0.9000000), wk =   0.0060000
        k(  106) = (   0.8500000  -0.0500000   0.8500000), wk =   0.0060000
        k(  107) = (   0.8000000   0.0000000   0.8000000), wk =   0.0030000
        k(  108) = (   0.0000000   0.9000000   0.0000000), wk =   0.0015000
        k(  109) = (   0.9500000  -0.0500000   0.9500000), wk =   0.0060000
        k(  110) = (   0.9000000   0.0000000   0.9000000), wk =   0.0030000
        k(  111) = (   0.0000000  -1.0000000   0.0000000), wk =   0.0007500
        k(  112) = (  -0.1000000   0.2000000   0.0000000), wk =   0.0060000
        k(  113) = (  -0.1500000   0.2500000  -0.0500000), wk =   0.0120000
        k(  114) = (  -0.2000000   0.3000000  -0.1000000), wk =   0.0120000
        k(  115) = (  -0.2500000   0.3500000  -0.1500000), wk =   0.0120000
        k(  116) = (  -0.3000000   0.4000000  -0.2000000), wk =   0.0120000
        k(  117) = (  -0.3500000   0.4500000  -0.2500000), wk =   0.0120000
        k(  118) = (  -0.4000000   0.5000000  -0.3000000), wk =   0.0120000
        k(  119) = (   0.5500000  -0.4500000   0.6500000), wk =   0.0120000
        k(  120) = (   0.5000000  -0.4000000   0.6000000), wk =   0.0060000
        k(  121) = (  -0.1000000   0.3000000   0.0000000), wk =   0.0060000
        k(  122) = (  -0.1500000   0.3500000  -0.0500000), wk =   0.0120000
        k(  123) = (  -0.2000000   0.4000000  -0.1000000), wk =   0.0120000
        k(  124) = (  -0.2500000   0.4500000  -0.1500000), wk =   0.0120000
        k(  125) = (  -0.3000000   0.5000000  -0.2000000), wk =   0.0120000
        k(  126) = (  -0.3500000   0.5500000  -0.2500000), wk =   0.0120000
        k(  127) = (   0.6000000  -0.4000000   0.7000000), wk =   0.0120000
        k(  128) = (   0.5500000  -0.3500000   0.6500000), wk =   0.0120000
        k(  129) = (   0.5000000  -0.3000000   0.6000000), wk =   0.0120000
        k(  130) = (   0.4500000  -0.2500000   0.5500000), wk =   0.0120000
        k(  131) = (   0.4000000  -0.2000000   0.5000000), wk =   0.0120000
        k(  132) = (   0.3500000  -0.1500000   0.4500000), wk =   0.0120000
        k(  133) = (   0.3000000  -0.1000000   0.4000000), wk =   0.0120000
        k(  134) = (   0.2500000  -0.0500000   0.3500000), wk =   0.0120000
        k(  135) = (   0.2000000   0.0000000   0.3000000), wk =   0.0060000
        k(  136) = (  -0.1000000   0.4000000   0.0000000), wk =   0.0060000
        k(  137) = (  -0.1500000   0.4500000  -0.0500000), wk =   0.0120000
        k(  138) = (  -0.2000000   0.5000000  -0.1000000), wk =   0.0120000
        k(  139) = (  -0.2500000   0.5500000  -0.1500000), wk =   0.0120000
        k(  140) = (  -0.3000000   0.6000000  -0.2000000), wk =   0.0120000
        k(  141) = (   0.6500000  -0.3500000   0.7500000), wk =   0.0120000
        k(  142) = (   0.6000000  -0.3000000   0.7000000), wk =   0.0120000
        k(  143) = (   0.5500000  -0.2500000   0.6500000), wk =   0.0120000
        k(  144) = (   0.5000000  -0.2000000   0.6000000), wk =   0.0120000
        k(  145) = (   0.4500000  -0.1500000   0.5500000), wk =   0.0120000
        k(  146) = (   0.4000000  -0.1000000   0.5000000), wk =   0.0120000
        k(  147) = (   0.3500000  -0.0500000   0.4500000), wk =   0.0120000
        k(  148) = (   0.3000000   0.0000000   0.4000000), wk =   0.0060000
        k(  149) = (  -0.1000000   0.5000000   0.0000000), wk =   0.0060000
        k(  150) = (  -0.1500000   0.5500000  -0.0500000), wk =   0.0120000
        k(  151) = (  -0.2000000   0.6000000  -0.1000000), wk =   0.0120000
        k(  152) = (  -0.2500000   0.6500000  -0.1500000), wk =   0.0120000
        k(  153) = (   0.7000000  -0.3000000   0.8000000), wk =   0.0120000
        k(  154) = (   0.6500000  -0.2500000   0.7500000), wk =   0.0120000
        k(  155) = (   0.6000000  -0.2000000   0.7000000), wk =   0.0120000
        k(  156) = (   0.5500000  -0.1500000   0.6500000), wk =   0.0120000
        k(  157) = (   0.5000000  -0.1000000   0.6000000), wk =   0.0120000
        k(  158) = (   0.4500000  -0.0500000   0.5500000), wk =   0.0120000
        k(  159) = (   0.4000000   0.0000000   0.5000000), wk =   0.0060000
        k(  160) = (  -0.1000000   0.6000000   0.0000000), wk =   0.0060000
        k(  161) = (  -0.1500000   0.6500000  -0.0500000), wk =   0.0120000
        k(  162) = (  -0.2000000   0.7000000  -0.1000000), wk =   0.0120000
        k(  163) = (   0.7500000  -0.2500000   0.8500000), wk =   0.0120000
        k(  164) = (   0.7000000  -0.2000000   0.8000000), wk =   0.0120000
        k(  165) = (   0.6500000  -0.1500000   0.7500000), wk =   0.0120000
        k(  166) = (   0.6000000  -0.1000000   0.7000000), wk =   0.0120000
        k(  167) = (   0.5500000  -0.0500000   0.6500000), wk =   0.0120000
        k(  168) = (   0.5000000   0.0000000   0.6000000), wk =   0.0060000
        k(  169) = (  -0.1000000   0.7000000  -0.0000000), wk =   0.0060000
        k(  170) = (  -0.1500000   0.7500000  -0.0500000), wk =   0.0120000
        k(  171) = (   0.8000000  -0.2000000   0.9000000), wk =   0.0120000
        k(  172) = (   0.7500000  -0.1500000   0.8500000), wk =   0.0120000
        k(  173) = (   0.7000000  -0.1000000   0.8000000), wk =   0.0120000
        k(  174) = (   0.6500000  -0.0500000   0.7500000), wk =   0.0120000
        k(  175) = (   0.6000000  -0.0000000   0.7000000), wk =   0.0060000
        k(  176) = (  -0.1000000   0.8000000   0.0000000), wk =   0.0060000
        k(  177) = (   0.8500000  -0.1500000   0.9500000), wk =   0.0120000
        k(  178) = (   0.8000000  -0.1000000   0.9000000), wk =   0.0120000
        k(  179) = (   0.7500000  -0.0500000   0.8500000), wk =   0.0120000
        k(  180) = (   0.7000000   0.0000000   0.8000000), wk =   0.0060000
        k(  181) = (   0.9000000  -0.1000000   1.0000000), wk =   0.0060000
        k(  182) = (   0.8500000  -0.0500000   0.9500000), wk =   0.0120000
        k(  183) = (   0.8000000   0.0000000   0.9000000), wk =   0.0060000
        k(  184) = (  -0.1000000  -1.0000000  -0.0000000), wk =   0.0030000
        k(  185) = (  -0.2000000   0.4000000   0.0000000), wk =   0.0060000
        k(  186) = (  -0.2500000   0.4500000  -0.0500000), wk =   0.0120000
        k(  187) = (  -0.3000000   0.5000000  -0.1000000), wk =   0.0120000
        k(  188) = (  -0.3500000   0.5500000  -0.1500000), wk =   0.0120000
        k(  189) = (   0.6000000  -0.4000000   0.8000000), wk =   0.0120000
        k(  190) = (   0.5500000  -0.3500000   0.7500000), wk =   0.0120000
        k(  191) = (   0.5000000  -0.3000000   0.7000000), wk =   0.0060000
        k(  192) = (  -0.2000000   0.5000000   0.0000000), wk =   0.0060000
        k(  193) = (  -0.2500000   0.5500000  -0.0500000), wk =   0.0120000
        k(  194) = (  -0.3000000   0.6000000  -0.1000000), wk =   0.0120000
        k(  195) = (   0.6500000  -0.3500000   0.8500000), wk =   0.0120000
        k(  196) = (   0.6000000  -0.3000000   0.8000000), wk =   0.0120000
        k(  197) = (   0.5500000  -0.2500000   0.7500000), wk =   0.0120000
        k(  198) = (   0.5000000  -0.2000000   0.7000000), wk =   0.0120000
        k(  199) = (   0.4500000  -0.1500000   0.6500000), wk =   0.0120000
        k(  200) = (   0.4000000  -0.1000000   0.6000000), wk =   0.0120000
        k(  201) = (   0.3500000  -0.0500000   0.5500000), wk =   0.0120000
        k(  202) = (   0.3000000  -0.0000000   0.5000000), wk =   0.0060000
        k(  203) = (  -0.2000000   0.6000000   0.0000000), wk =   0.0060000
        k(  204) = (  -0.2500000   0.6500000  -0.0500000), wk =   0.0120000
        k(  205) = (   0.7000000  -0.3000000   0.9000000), wk =   0.0120000
        k(  206) = (   0.6500000  -0.2500000   0.8500000), wk =   0.0120000
        k(  207) = (   0.6000000  -0.2000000   0.8000000), wk =   0.0120000
        k(  208) = (   0.5500000  -0.1500000   0.7500000), wk =   0.0120000
        k(  209) = (   0.5000000  -0.1000000   0.7000000), wk =   0.0120000
        k(  210) = (   0.4500000  -0.0500000   0.6500000), wk =   0.0120000
        k(  211) = (   0.4000000   0.0000000   0.6000000), wk =   0.0060000
        k(  212) = (  -0.2000000   0.7000000  -0.0000000), wk =   0.0060000
        k(  213) = (   0.7500000  -0.2500000   0.9500000), wk =   0.0120000
        k(  214) = (   0.7000000  -0.2000000   0.9000000), wk =   0.0120000
        k(  215) = (   0.6500000  -0.1500000   0.8500000), wk =   0.0120000
        k(  216) = (   0.6000000  -0.1000000   0.8000000), wk =   0.0120000
        k(  217) = (   0.5500000  -0.0500000   0.7500000), wk =   0.0120000
        k(  218) = (   0.5000000  -0.0000000   0.7000000), wk =   0.0060000
        k(  219) = (   0.8000000  -0.2000000   1.0000000), wk =   0.0060000
        k(  220) = (   0.7500000  -0.1500000   0.9500000), wk =   0.0120000
        k(  221) = (   0.7000000  -0.1000000   0.9000000), wk =   0.0120000
        k(  222) = (   0.6500000  -0.0500000   0.8500000), wk =   0.0120000
        k(  223) = (   0.6000000   0.0000000   0.8000000), wk =   0.0060000
        k(  224) = (   0.8000000  -0.1000000   1.0000000), wk =   0.0060000
        k(  225) = (   0.7500000  -0.0500000   0.9500000), wk =   0.0120000
        k(  226) = (   0.7000000   0.0000000   0.9000000), wk =   0.0060000
        k(  227) = (  -0.2000000  -1.0000000   0.0000000), wk =   0.0030000
        k(  228) = (  -0.3000000   0.6000000  -0.0000000), wk =   0.0060000
        k(  229) = (   0.6500000  -0.3500000   0.9500000), wk =   0.0120000
        k(  230) = (   0.6000000  -0.3000000   0.9000000), wk =   0.0120000
        k(  231) = (   0.5500000  -0.2500000   0.8500000), wk =   0.0120000
        k(  232) = (   0.5000000  -0.2000000   0.8000000), wk =   0.0060000
        k(  233) = (   0.7000000  -0.3000000   1.0000000), wk =   0.0060000
        k(  234) = (   0.6500000  -0.2500000   0.9500000), wk =   0.0120000
        k(  235) = (   0.6000000  -0.2000000   0.9000000), wk =   0.0120000
        k(  236) = (   0.5500000  -0.1500000   0.8500000), wk =   0.0120000
        k(  237) = (   0.5000000  -0.1000000   0.8000000), wk =   0.0120000
        k(  238) = (   0.4500000  -0.0500000   0.7500000), wk =   0.0120000
        k(  239) = (   0.4000000   0.0000000   0.7000000), wk =   0.0060000
        k(  240) = (   0.7000000  -0.2000000   1.0000000), wk =   0.0060000
        k(  241) = (   0.6500000  -0.1500000   0.9500000), wk =   0.0120000
        k(  242) = (   0.6000000  -0.1000000   0.9000000), wk =   0.0120000
        k(  243) = (   0.5500000  -0.0500000   0.8500000), wk =   0.0120000
        k(  244) = (   0.5000000   0.0000000   0.8000000), wk =   0.0060000
        k(  245) = (   0.7000000  -0.1000000   1.0000000), wk =   0.0060000
        k(  246) = (   0.6500000  -0.0500000   0.9500000), wk =   0.0120000
        k(  247) = (   0.6000000   0.0000000   0.9000000), wk =   0.0060000
        k(  248) = (  -0.3000000  -1.0000000   0.0000000), wk =   0.0030000
        k(  249) = (   0.6000000  -0.2000000   1.0000000), wk =   0.0060000
        k(  250) = (   0.5500000  -0.1500000   0.9500000), wk =   0.0120000
        k(  251) = (   0.5000000  -0.1000000   0.9000000), wk =   0.0060000
        k(  252) = (   0.6000000  -0.1000000   1.0000000), wk =   0.0060000
        k(  253) = (   0.5500000  -0.0500000   0.9500000), wk =   0.0120000
        k(  254) = (   0.5000000   0.0000000   0.9000000), wk =   0.0060000
        k(  255) = (  -0.4000000  -1.0000000   0.0000000), wk =   0.0030000
        k(  256) = (  -0.5000000  -1.0000000   0.0000000), wk =   0.0015000

                       cryst. coord.
        k(    1) = (   0.0000000   0.0000000   0.0000000), wk =   0.0002500
        k(    2) = (   0.0000000   0.0000000   0.0500000), wk =   0.0020000
        k(    3) = (   0.0000000   0.0000000   0.1000000), wk =   0.0020000
        k(    4) = (   0.0000000   0.0000000   0.1500000), wk =   0.0020000
        k(    5) = (   0.0000000   0.0000000   0.2000000), wk =   0.0020000
        k(    6) = (   0.0000000   0.0000000   0.2500000), wk =   0.0020000
        k(    7) = (   0.0000000   0.0000000   0.3000000), wk =   0.0020000
        k(    8) = (   0.0000000   0.0000000   0.3500000), wk =   0.0020000
        k(    9) = (   0.0000000   0.0000000   0.4000000), wk =   0.0020000
        k(   10) = (   0.0000000   0.0000000   0.4500000), wk =   0.0020000
        k(   11) = (   0.0000000   0.0000000  -0.5000000), wk =   0.0010000
        k(   12) = (   0.0000000   0.0500000   0.0500000), wk =   0.0015000
        k(   13) = (   0.0000000   0.0500000   0.1000000), wk =   0.0060000
        k(   14) = (   0.0000000   0.0500000   0.1500000), wk =   0.0060000
        k(   15) = (   0.0000000   0.0500000   0.2000000), wk =   0.0060000
        k(   16) = (   0.0000000   0.0500000   0.2500000), wk =   0.0060000
        k(   17) = (   0.0000000   0.0500000   0.3000000), wk =   0.0060000
        k(   18) = (   0.0000000   0.0500000   0.3500000), wk =   0.0060000
        k(   19) = (   0.0000000   0.0500000   0.4000000), wk =   0.0060000
        k(   20) = (   0.0000000   0.0500000   0.4500000), wk =   0.0060000
        k(   21) = (   0.0000000   0.0500000  -0.5000000), wk =   0.0060000
        k(   22) = (   0.0000000   0.0500000  -0.4500000), wk =   0.0060000
        k(   23) = (   0.0000000   0.0500000  -0.4000000), wk =   0.0060000
        k(   24) = (   0.0000000   0.0500000  -0.3500000), wk =   0.0060000
        k(   25) = (   0.0000000   0.0500000  -0.3000000), wk =   0.0060000
        k(   26) = (   0.0000000   0.0500000  -0.2500000), wk =   0.0060000
        k(   27) = (   0.0000000   0.0500000  -0.2000000), wk =   0.0060000
        k(   28) = (   0.0000000   0.0500000  -0.1500000), wk =   0.0060000
        k(   29) = (   0.0000000   0.0500000  -0.1000000), wk =   0.0060000
        k(   30) = (   0.0000000   0.0500000  -0.0500000), wk =   0.0030000
        k(   31) = (   0.0000000   0.1000000   0.1000000), wk =   0.0015000
        k(   32) = (   0.0000000   0.1000000   0.1500000), wk =   0.0060000
        k(   33) = (   0.0000000   0.1000000   0.2000000), wk =   0.0060000
        k(   34) = (   0.0000000   0.1000000   0.2500000), wk =   0.0060000
        k(   35) = (   0.0000000   0.1000000   0.3000000), wk =   0.0060000
        k(   36) = (   0.0000000   0.1000000   0.3500000), wk =   0.0060000
        k(   37) = (   0.0000000   0.1000000   0.4000000), wk =   0.0060000
        k(   38) = (   0.0000000   0.1000000   0.4500000), wk =   0.0060000
        k(   39) = (   0.0000000   0.1000000  -0.5000000), wk =   0.0060000
        k(   40) = (   0.0000000   0.1000000  -0.4500000), wk =   0.0060000
        k(   41) = (   0.0000000   0.1000000  -0.4000000), wk =   0.0060000
        k(   42) = (   0.0000000   0.1000000  -0.3500000), wk =   0.0060000
        k(   43) = (   0.0000000   0.1000000  -0.3000000), wk =   0.0060000
        k(   44) = (   0.0000000   0.1000000  -0.2500000), wk =   0.0060000
        k(   45) = (   0.0000000   0.1000000  -0.2000000), wk =   0.0060000
        k(   46) = (   0.0000000   0.1000000  -0.1500000), wk =   0.0060000
        k(   47) = (   0.0000000   0.1000000  -0.1000000), wk =   0.0030000
        k(   48) = (   0.0000000   0.1500000   0.1500000), wk =   0.0015000
        k(   49) = (   0.0000000   0.1500000   0.2000000), wk =   0.0060000
        k(   50) = (   0.0000000   0.1500000   0.2500000), wk =   0.0060000
        k(   51) = (   0.0000000   0.1500000   0.3000000), wk =   0.0060000
        k(   52) = (   0.0000000   0.1500000   0.3500000), wk =   0.0060000
        k(   53) = (   0.0000000   0.1500000   0.4000000), wk =   0.0060000
        k(   54) = (   0.0000000   0.1500000   0.4500000), wk =   0.0060000
        k(   55) = (   0.0000000   0.1500000  -0.5000000), wk =   0.0060000
        k(   56) = (   0.0000000   0.1500000  -0.4500000), wk =   0.0060000
        k(   57) = (   0.0000000   0.1500000  -0.4000000), wk =   0.0060000
        k(   58) = (   0.0000000   0.1500000  -0.3500000), wk =   0.0060000
        k(   59) = (   0.0000000   0.1500000  -0.3000000), wk =   0.0060000
        k(   60) = (   0.0000000   0.1500000  -0.2500000), wk =   0.0060000
        k(   61) = (   0.0000000   0.1500000  -0.2000000), wk =   0.0060000
        k(   62) = (   0.0000000   0.1500000  -0.1500000), wk =   0.0030000
        k(   63) = (   0.0000000   0.2000000   0.2000000), wk =   0.0015000
        k(   64) = (   0.0000000   0.2000000   0.2500000), wk =   0.0060000
        k(   65) = (   0.0000000   0.2000000   0.3000000), wk =   0.0060000
        k(   66) = (   0.0000000   0.2000000   0.3500000), wk =   0.0060000
        k(   67) = (   0.0000000   0.2000000   0.4000000), wk =   0.0060000
        k(   68) = (   0.0000000   0.2000000   0.4500000), wk =   0.0060000
        k(   69) = (   0.0000000   0.2000000  -0.5000000), wk =   0.0060000
        k(   70) = (   0.0000000   0.2000000  -0.4500000), wk =   0.0060000
        k(   71) = (   0.0000000   0.2000000  -0.4000000), wk =   0.0060000
        k(   72) = (   0.0000000   0.2000000  -0.3500000), wk =   0.0060000
        k(   73) = (   0.0000000   0.2000000  -0.3000000), wk =   0.0060000
        k(   74) = (   0.0000000   0.2000000  -0.2500000), wk =   0.0060000
        k(   75) = (   0.0000000   0.2000000  -0.2000000), wk =   0.0030000
        k(   76) = (   0.0000000   0.2500000   0.2500000), wk =   0.0015000
        k(   77) = (   0.0000000   0.2500000   0.3000000), wk =   0.0060000
        k(   78) = (   0.0000000   0.2500000   0.3500000), wk =   0.0060000
        k(   79) = (   0.0000000   0.2500000   0.4000000), wk =   0.0060000
        k(   80) = (   0.0000000   0.2500000   0.4500000), wk =   0.0060000
        k(   81) = (   0.0000000   0.2500000  -0.5000000), wk =   0.0060000
        k(   82) = (   0.0000000   0.2500000  -0.4500000), wk =   0.0060000
        k(   83) = (   0.0000000   0.2500000  -0.4000000), wk =   0.0060000
        k(   84) = (   0.0000000   0.2500000  -0.3500000), wk =   0.0060000
        k(   85) = (   0.0000000   0.2500000  -0.3000000), wk =   0.0060000
        k(   86) = (   0.0000000   0.2500000  -0.2500000), wk =   0.0030000
        k(   87) = (   0.0000000   0.3000000   0.3000000), wk =   0.0015000
        k(   88) = (   0.0000000   0.3000000   0.3500000), wk =   0.0060000
        k(   89) = (   0.0000000   0.3000000   0.4000000), wk =   0.0060000
        k(   90) = (   0.0000000   0.3000000   0.4500000), wk =   0.0060000
        k(   91) = (   0.0000000   0.3000000  -0.5000000), wk =   0.0060000
        k(   92) = (   0.0000000   0.3000000  -0.4500000), wk =   0.0060000
        k(   93) = (   0.0000000   0.3000000  -0.4000000), wk =   0.0060000
        k(   94) = (   0.0000000   0.3000000  -0.3500000), wk =   0.0060000
        k(   95) = (   0.0000000   0.3000000  -0.3000000), wk =   0.0030000
        k(   96) = (   0.0000000   0.3500000   0.3500000), wk =   0.0015000
        k(   97) = (   0.0000000   0.3500000   0.4000000), wk =   0.0060000
        k(   98) = (   0.0000000   0.3500000   0.4500000), wk =   0.0060000
        k(   99) = (   0.0000000   0.3500000  -0.5000000), wk =   0.0060000
        k(  100) = (   0.0000000   0.3500000  -0.4500000), wk =   0.0060000
        k(  101) = (   0.0000000   0.3500000  -0.4000000), wk =   0.0060000
        k(  102) = (   0.0000000   0.3500000  -0.3500000), wk =   0.0030000
        k(  103) = (   0.0000000   0.4000000   0.4000000), wk =   0.0015000
        k(  104) = (   0.0000000   0.4000000   0.4500000), wk =   0.0060000
        k(  105) = (   0.0000000   0.4000000  -0.5000000), wk =   0.0060000
        k(  106) = (   0.0000000   0.4000000  -0.4500000), wk =   0.0060000
        k(  107) = (   0.0000000   0.4000000  -0.4000000), wk =   0.0030000
        k(  108) = (   0.0000000   0.4500000   0.4500000), wk =   0.0015000
        k(  109) = (   0.0000000   0.4500000  -0.5000000), wk =   0.0060000
        k(  110) = (   0.0000000   0.4500000  -0.4500000), wk =   0.0030000
        k(  111) = (   0.0000000  -0.5000000  -0.5000000), wk =   0.0007500
        k(  112) = (   0.0500000   0.1000000   0.1500000), wk =   0.0060000
        k(  113) = (   0.0500000   0.1000000   0.2000000), wk =   0.0120000
        k(  114) = (   0.0500000   0.1000000   0.2500000), wk =   0.0120000
        k(  115) = (   0.0500000   0.1000000   0.3000000), wk =   0.0120000
        k(  116) = (   0.0500000   0.1000000   0.3500000), wk =   0.0120000
        k(  117) = (   0.0500000   0.1000000   0.4000000), wk =   0.0120000
        k(  118) = (   0.0500000   0.1000000   0.4500000), wk =   0.0120000
        k(  119) = (   0.0500000   0.1000000  -0.5000000), wk =   0.0120000
        k(  120) = (   0.0500000   0.1000000  -0.4500000), wk =   0.0060000
        k(  121) = (   0.0500000   0.1500000   0.2000000), wk =   0.0060000
        k(  122) = (   0.0500000   0.1500000   0.2500000), wk =   0.0120000
        k(  123) = (   0.0500000   0.1500000   0.3000000), wk =   0.0120000
        k(  124) = (   0.0500000   0.1500000   0.3500000), wk =   0.0120000
        k(  125) = (   0.0500000   0.1500000   0.4000000), wk =   0.0120000
        k(  126) = (   0.0500000   0.1500000   0.4500000), wk =   0.0120000
        k(  127) = (   0.0500000   0.1500000  -0.5000000), wk =   0.0120000
        k(  128) = (   0.0500000   0.1500000  -0.4500000), wk =   0.0120000
        k(  129) = (   0.0500000   0.1500000  -0.4000000), wk =   0.0120000
        k(  130) = (   0.0500000   0.1500000  -0.3500000), wk =   0.0120000
        k(  131) = (   0.0500000   0.1500000  -0.3000000), wk =   0.0120000
        k(  132) = (   0.0500000   0.1500000  -0.2500000), wk =   0.0120000
        k(  133) = (   0.0500000   0.1500000  -0.2000000), wk =   0.0120000
        k(  134) = (   0.0500000   0.1500000  -0.1500000), wk =   0.0120000
        k(  135) = (   0.0500000   0.1500000  -0.1000000), wk =   0.0060000
        k(  136) = (   0.0500000   0.2000000   0.2500000), wk =   0.0060000
        k(  137) = (   0.0500000   0.2000000   0.3000000), wk =   0.0120000
        k(  138) = (   0.0500000   0.2000000   0.3500000), wk =   0.0120000
        k(  139) = (   0.0500000   0.2000000   0.4000000), wk =   0.0120000
        k(  140) = (   0.0500000   0.2000000   0.4500000), wk =   0.0120000
        k(  141) = (   0.0500000   0.2000000  -0.5000000), wk =   0.0120000
        k(  142) = (   0.0500000   0.2000000  -0.4500000), wk =   0.0120000
        k(  143) = (   0.0500000   0.2000000  -0.4000000), wk =   0.0120000
        k(  144) = (   0.0500000   0.2000000  -0.3500000), wk =   0.0120000
        k(  145) = (   0.0500000   0.2000000  -0.3000000), wk =   0.0120000
        k(  146) = (   0.0500000   0.2000000  -0.2500000), wk =   0.0120000
        k(  147) = (   0.0500000   0.2000000  -0.2000000), wk =   0.0120000
        k(  148) = (   0.0500000   0.2000000  -0.1500000), wk =   0.0060000
        k(  149) = (   0.0500000   0.2500000   0.3000000), wk =   0.0060000
        k(  150) = (   0.0500000   0.2500000   0.3500000), wk =   0.0120000
        k(  151) = (   0.0500000   0.2500000   0.4000000), wk =   0.0120000
        k(  152) = (   0.0500000   0.2500000   0.4500000), wk =   0.0120000
        k(  153) = (   0.0500000   0.2500000  -0.5000000), wk =   0.0120000
        k(  154) = (   0.0500000   0.2500000  -0.4500000), wk =   0.0120000
        k(  155) = (   0.0500000   0.2500000  -0.4000000), wk =   0.0120000
        k(  156) = (   0.0500000   0.2500000  -0.3500000), wk =   0.0120000
        k(  157) = (   0.0500000   0.2500000  -0.3000000), wk =   0.0120000
        k(  158) = (   0.0500000   0.2500000  -0.2500000), wk =   0.0120000
        k(  159) = (   0.0500000   0.2500000  -0.2000000), wk =   0.0060000
        k(  160) = (   0.0500000   0.3000000   0.3500000), wk =   0.0060000
        k(  161) = (   0.0500000   0.3000000   0.4000000), wk =   0.0120000
        k(  162) = (   0.0500000   0.3000000   0.4500000), wk =   0.0120000
        k(  163) = (   0.0500000   0.3000000  -0.5000000), wk =   0.0120000
        k(  164) = (   0.0500000   0.3000000  -0.4500000), wk =   0.0120000
        k(  165) = (   0.0500000   0.3000000  -0.4000000), wk =   0.0120000
        k(  166) = (   0.0500000   0.3000000  -0.3500000), wk =   0.0120000
        k(  167) = (   0.0500000   0.3000000  -0.3000000), wk =   0.0120000
        k(  168) = (   0.0500000   0.3000000  -0.2500000), wk =   0.0060000
        k(  169) = (   0.0500000   0.3500000   0.4000000), wk =   0.0060000
        k(  170) = (   0.0500000   0.3500000   0.4500000), wk =   0.0120000
        k(  171) = (   0.0500000   0.3500000  -0.5000000), wk =   0.0120000
        k(  172) = (   0.0500000   0.3500000  -0.4500000), wk =   0.0120000
        k(  173) = (   0.0500000   0.3500000  -0.4000000), wk =   0.0120000
        k(  174) = (   0.0500000   0.3500000  -0.3500000), wk =   0.0120000
        k(  175) = (   0.0500000   0.3500000  -0.3000000), wk =   0.0060000
        k(  176) = (   0.0500000   0.4000000   0.4500000), wk =   0.0060000
        k(  177) = (   0.0500000   0.4000000  -0.5000000), wk =   0.0120000
        k(  178) = (   0.0500000   0.4000000  -0.4500000), wk =   0.0120000
        k(  179) = (   0.0500000   0.4000000  -0.4000000), wk =   0.0120000
        k(  180) = (   0.0500000   0.4000000  -0.3500000), wk =   0.0060000
        k(  181) = (   0.0500000   0.4500000  -0.5000000), wk =   0.0060000
        k(  182) = (   0.0500000   0.4500000  -0.4500000), wk =   0.0120000
        k(  183) = (   0.0500000   0.4500000  -0.4000000), wk =   0.0060000
        k(  184) = (   0.0500000  -0.5000000  -0.4500000), wk =   0.0030000
        k(  185) = (   0.1000000   0.2000000   0.3000000), wk =   0.0060000
        k(  186) = (   0.1000000   0.2000000   0.3500000), wk =   0.0120000
        k(  187) = (   0.1000000   0.2000000   0.4000000), wk =   0.0120000
        k(  188) = (   0.1000000   0.2000000   0.4500000), wk =   0.0120000
        k(  189) = (   0.1000000   0.2000000  -0.5000000), wk =   0.0120000
        k(  190) = (   0.1000000   0.2000000  -0.4500000), wk =   0.0120000
        k(  191) = (   0.1000000   0.2000000  -0.4000000), wk =   0.0060000
        k(  192) = (   0.1000000   0.2500000   0.3500000), wk =   0.0060000
        k(  193) = (   0.1000000   0.2500000   0.4000000), wk =   0.0120000
        k(  194) = (   0.1000000   0.2500000   0.4500000), wk =   0.0120000
        k(  195) = (   0.1000000   0.2500000  -0.5000000), wk =   0.0120000
        k(  196) = (   0.1000000   0.2500000  -0.4500000), wk =   0.0120000
        k(  197) = (   0.1000000   0.2500000  -0.4000000), wk =   0.0120000
        k(  198) = (   0.1000000   0.2500000  -0.3500000), wk =   0.0120000
        k(  199) = (   0.1000000   0.2500000  -0.3000000), wk =   0.0120000
        k(  200) = (   0.1000000   0.2500000  -0.2500000), wk =   0.0120000
        k(  201) = (   0.1000000   0.2500000  -0.2000000), wk =   0.0120000
        k(  202) = (   0.1000000   0.2500000  -0.1500000), wk =   0.0060000
        k(  203) = (   0.1000000   0.3000000   0.4000000), wk =   0.0060000
        k(  204) = (   0.1000000   0.3000000   0.4500000), wk =   0.0120000
        k(  205) = (   0.1000000   0.3000000  -0.5000000), wk =   0.0120000
        k(  206) = (   0.1000000   0.3000000  -0.4500000), wk =   0.0120000
        k(  207) = (   0.1000000   0.3000000  -0.4000000), wk =   0.0120000
        k(  208) = (   0.1000000   0.3000000  -0.3500000), wk =   0.0120000
        k(  209) = (   0.1000000   0.3000000  -0.3000000), wk =   0.0120000
        k(  210) = (   0.1000000   0.3000000  -0.2500000), wk =   0.0120000
        k(  211) = (   0.1000000   0.3000000  -0.2000000), wk =   0.0060000
        k(  212) = (   0.1000000   0.3500000   0.4500000), wk =   0.0060000
        k(  213) = (   0.1000000   0.3500000  -0.5000000), wk =   0.0120000
        k(  214) = (   0.1000000   0.3500000  -0.4500000), wk =   0.0120000
        k(  215) = (   0.1000000   0.3500000  -0.4000000), wk =   0.0120000
        k(  216) = (   0.1000000   0.3500000  -0.3500000), wk =   0.0120000
        k(  217) = (   0.1000000   0.3500000  -0.3000000), wk =   0.0120000
        k(  218) = (   0.1000000   0.3500000  -0.2500000), wk =   0.0060000
        k(  219) = (   0.1000000   0.4000000  -0.5000000), wk =   0.0060000
        k(  220) = (   0.1000000   0.4000000  -0.4500000), wk =   0.0120000
        k(  221) = (   0.1000000   0.4000000  -0.4000000), wk =   0.0120000
        k(  222) = (   0.1000000   0.4000000  -0.3500000), wk =   0.0120000
        k(  223) = (   0.1000000   0.4000000  -0.3000000), wk =   0.0060000
        k(  224) = (   0.1000000   0.4500000  -0.4500000), wk =   0.0060000
        k(  225) = (   0.1000000   0.4500000  -0.4000000), wk =   0.0120000
        k(  226) = (   0.1000000   0.4500000  -0.3500000), wk =   0.0060000
        k(  227) = (   0.1000000  -0.5000000  -0.4000000), wk =   0.0030000
        k(  228) = (   0.1500000   0.3000000   0.4500000), wk =   0.0060000
        k(  229) = (   0.1500000   0.3000000  -0.5000000), wk =   0.0120000
        k(  230) = (   0.1500000   0.3000000  -0.4500000), wk =   0.0120000
        k(  231) = (   0.1500000   0.3000000  -0.4000000), wk =   0.0120000
        k(  232) = (   0.1500000   0.3000000  -0.3500000), wk =   0.0060000
        k(  233) = (   0.1500000   0.3500000  -0.5000000), wk =   0.0060000
        k(  234) = (   0.1500000   0.3500000  -0.4500000), wk =   0.0120000
        k(  235) = (   0.1500000   0.3500000  -0.4000000), wk =   0.0120000
        k(  236) = (   0.1500000   0.3500000  -0.3500000), wk =   0.0120000
        k(  237) = (   0.1500000   0.3500000  -0.3000000), wk =   0.0120000
        k(  238) = (   0.1500000   0.3500000  -0.2500000), wk =   0.0120000
        k(  239) = (   0.1500000   0.3500000  -0.2000000), wk =   0.0060000
        k(  240) = (   0.1500000   0.4000000  -0.4500000), wk =   0.0060000
        k(  241) = (   0.1500000   0.4000000  -0.4000000), wk =   0.0120000
        k(  242) = (   0.1500000   0.4000000  -0.3500000), wk =   0.0120000
        k(  243) = (   0.1500000   0.4000000  -0.3000000), wk =   0.0120000
        k(  244) = (   0.1500000   0.4000000  -0.2500000), wk =   0.0060000
        k(  245) = (   0.1500000   0.4500000  -0.4000000), wk =   0.0060000
        k(  246) = (   0.1500000   0.4500000  -0.3500000), wk =   0.0120000
        k(  247) = (   0.1500000   0.4500000  -0.3000000), wk =   0.0060000
        k(  248) = (   0.1500000  -0.5000000  -0.3500000), wk =   0.0030000
        k(  249) = (   0.2000000   0.4000000  -0.4000000), wk =   0.0060000
        k(  250) = (   0.2000000   0.4000000  -0.3500000), wk =   0.0120000
        k(  251) = (   0.2000000   0.4000000  -0.3000000), wk =   0.0060000
        k(  252) = (   0.2000000   0.4500000  -0.3500000), wk =   0.0060000
        k(  253) = (   0.2000000   0.4500000  -0.3000000), wk =   0.0120000
        k(  254) = (   0.2000000   0.4500000  -0.2500000), wk =   0.0060000
        k(  255) = (   0.2000000  -0.5000000  -0.3000000), wk =   0.0030000
        k(  256) = (   0.2500000  -0.5000000  -0.2500000), wk =   0.0015000

     Dense  grid:    17453 G-vectors     FFT dimensions: (  40,  40,  40)

     Dynamical RAM for                 wfc:       0.33 MB

     Dynamical RAM for     wfc (w. buffer):       0.33 MB

     Dynamical RAM for           str. fact:       0.27 MB

     Dynamical RAM for           local pot:       0.00 MB

     Dynamical RAM for          nlocal pot:       0.53 MB

     Dynamical RAM for                qrad:       0.36 MB

     Dynamical RAM for          rho,v,vnew:       2.26 MB

     Dynamical RAM for           G-vectors:       1.13 MB

     Dynamical RAM for          h,s,v(r/c):       0.02 MB

     Dynamical RAM for          <psi|beta>:       0.00 MB

     Dynamical RAM for                 psi:       0.66 MB

     Dynamical RAM for                hpsi:       0.66 MB

     Dynamical RAM for      wfcinit/wfcrot:       0.67 MB

     Estimated static dynamical RAM per process >       7.85 MB

     Estimated max dynamical RAM per process >       9.20 MB

     The potential is recalculated from file :
     ./SCRATCH/silicon.save/charge-density

     Starting wfcs are random

     Band Structure Calculation
     Davidson diagonalization with overlap

     Computing kpt #:     1  of   256
     total cpu time spent up to now is        0.5 secs

     Computing kpt #:     2  of   256
     total cpu time spent up to now is        0.9 secs

     Computing kpt #:     3  of   256
     total cpu time spent up to now is        1.2 secs

     Computing kpt #:     4  of   256
     total cpu time spent up to now is        1.5 secs

     Computing kpt #:     5  of   256
     total cpu time spent up to now is        1.9 secs

     Computing kpt #:     6  of   256
     total cpu time spent up to now is        2.2 secs

     Computing kpt #:     7  of   256
     total cpu time spent up to now is        2.6 secs

     Computing kpt #:     8  of   256
     total cpu time spent up to now is        2.9 secs

     Computing kpt #:     9  of   256
     total cpu time spent up to now is        3.3 secs

     Computing kpt #:    10  of   256
     total cpu time spent up to now is        3.7 secs

     Computing kpt #:    11  of   256
     total cpu time spent up to now is        4.1 secs

     Computing kpt #:    12  of   256
     total cpu time spent up to now is        4.5 secs

     Computing kpt #:    13  of   256
     total cpu time spent up to now is        4.9 secs

     Computing kpt #:    14  of   256
     total cpu time spent up to now is        5.2 secs

     Computing kpt #:    15  of   256
     total cpu time spent up to now is        5.6 secs

     Computing kpt #:    16  of   256
     total cpu time spent up to now is        6.0 secs

     Computing kpt #:    17  of   256
     total cpu time spent up to now is        6.4 secs

     Computing kpt #:    18  of   256
     total cpu time spent up to now is        6.8 secs

     Computing kpt #:    19  of   256
     total cpu time spent up to now is        7.2 secs

     Computing kpt #:    20  of   256
     total cpu time spent up to now is        7.6 secs

     Computing kpt #:    21  of   256
     total cpu time spent up to now is        8.0 secs

     Computing kpt #:    22  of   256
     total cpu time spent up to now is        8.4 secs

     Computing kpt #:    23  of   256
     total cpu time spent up to now is        8.7 secs

     Computing kpt #:    24  of   256
     total cpu time spent up to now is        9.1 secs

     Computing kpt #:    25  of   256
     total cpu time spent up to now is        9.5 secs

     Computing kpt #:    26  of   256
     total cpu time spent up to now is        9.9 secs

     Computing kpt #:    27  of   256
     total cpu time spent up to now is       10.3 secs

     Computing kpt #:    28  of   256
     total cpu time spent up to now is       10.6 secs

     Computing kpt #:    29  of   256
     total cpu time spent up to now is       11.0 secs

     Computing kpt #:    30  of   256
     total cpu time spent up to now is       11.4 secs

     Computing kpt #:    31  of   256
     total cpu time spent up to now is       11.8 secs

     Computing kpt #:    32  of   256
     total cpu time spent up to now is       12.2 secs

     Computing kpt #:    33  of   256
     total cpu time spent up to now is       12.5 secs

     Computing kpt #:    34  of   256
     total cpu time spent up to now is       12.9 secs

     Computing kpt #:    35  of   256
     total cpu time spent up to now is       13.2 secs

     Computing kpt #:    36  of   256
     total cpu time spent up to now is       13.6 secs

     Computing kpt #:    37  of   256
     total cpu time spent up to now is       14.0 secs

     Computing kpt #:    38  of   256
     total cpu time spent up to now is       14.4 secs

     Computing kpt #:    39  of   256
     total cpu time spent up to now is       14.8 secs

     Computing kpt #:    40  of   256
     total cpu time spent up to now is       15.1 secs

     Computing kpt #:    41  of   256
     total cpu time spent up to now is       15.4 secs

     Computing kpt #:    42  of   256
     total cpu time spent up to now is       15.8 secs

     Computing kpt #:    43  of   256
     total cpu time spent up to now is       16.1 secs

     Computing kpt #:    44  of   256
     total cpu time spent up to now is       16.5 secs

     Computing kpt #:    45  of   256
     total cpu time spent up to now is       16.9 secs

     Computing kpt #:    46  of   256
     total cpu time spent up to now is       17.2 secs

     Computing kpt #:    47  of   256
     total cpu time spent up to now is       17.5 secs

     Computing kpt #:    48  of   256
     total cpu time spent up to now is       17.9 secs

     Computing kpt #:    49  of   256
     total cpu time spent up to now is       18.3 secs

     Computing kpt #:    50  of   256
     total cpu time spent up to now is       18.7 secs

     Computing kpt #:    51  of   256
     total cpu time spent up to now is       19.0 secs

     Computing kpt #:    52  of   256
     total cpu time spent up to now is       19.4 secs

     Computing kpt #:    53  of   256
     total cpu time spent up to now is       19.8 secs

     Computing kpt #:    54  of   256
     total cpu time spent up to now is       20.2 secs

     Computing kpt #:    55  of   256
     total cpu time spent up to now is       20.6 secs

     Computing kpt #:    56  of   256
     total cpu time spent up to now is       20.9 secs

     Computing kpt #:    57  of   256
     total cpu time spent up to now is       21.3 secs

     Computing kpt #:    58  of   256
     total cpu time spent up to now is       21.6 secs

     Computing kpt #:    59  of   256
     total cpu time spent up to now is       21.9 secs

     Computing kpt #:    60  of   256
     total cpu time spent up to now is       22.3 secs

     Computing kpt #:    61  of   256
     total cpu time spent up to now is       22.6 secs

     Computing kpt #:    62  of   256
     total cpu time spent up to now is       23.0 secs

     Computing kpt #:    63  of   256
     total cpu time spent up to now is       23.3 secs

     Computing kpt #:    64  of   256
     total cpu time spent up to now is       23.6 secs

     Computing kpt #:    65  of   256
     total cpu time spent up to now is       24.0 secs

     Computing kpt #:    66  of   256
     total cpu time spent up to now is       24.3 secs

     Computing kpt #:    67  of   256
     total cpu time spent up to now is       24.8 secs

     Computing kpt #:    68  of   256
     total cpu time spent up to now is       25.2 secs

     Computing kpt #:    69  of   256
     total cpu time spent up to now is       25.5 secs

     Computing kpt #:    70  of   256
     total cpu time spent up to now is       25.9 secs

     Computing kpt #:    71  of   256
     total cpu time spent up to now is       26.2 secs

     Computing kpt #:    72  of   256
     total cpu time spent up to now is       26.5 secs

     Computing kpt #:    73  of   256
     total cpu time spent up to now is       26.8 secs

     Computing kpt #:    74  of   256
     total cpu time spent up to now is       27.2 secs

     Computing kpt #:    75  of   256
     total cpu time spent up to now is       27.6 secs

     Computing kpt #:    76  of   256
     total cpu time spent up to now is       28.0 secs

     Computing kpt #:    77  of   256
     total cpu time spent up to now is       28.3 secs

     Computing kpt #:    78  of   256
     total cpu time spent up to now is       28.6 secs

     Computing kpt #:    79  of   256
     total cpu time spent up to now is       29.0 secs

     Computing kpt #:    80  of   256
     total cpu time spent up to now is       29.4 secs

     Computing kpt #:    81  of   256
     total cpu time spent up to now is       29.8 secs

     Computing kpt #:    82  of   256
     total cpu time spent up to now is       30.1 secs

     Computing kpt #:    83  of   256
     total cpu time spent up to now is       30.4 secs

     Computing kpt #:    84  of   256
     total cpu time spent up to now is       30.7 secs

     Computing kpt #:    85  of   256
     total cpu time spent up to now is       31.0 secs

     Computing kpt #:    86  of   256
     total cpu time spent up to now is       31.4 secs

     Computing kpt #:    87  of   256
     total cpu time spent up to now is       31.7 secs

     Computing kpt #:    88  of   256
     total cpu time spent up to now is       32.0 secs

     Computing kpt #:    89  of   256
     total cpu time spent up to now is       32.3 secs

     Computing kpt #:    90  of   256
     total cpu time spent up to now is       32.7 secs

     Computing kpt #:    91  of   256
     total cpu time spent up to now is       33.1 secs

     Computing kpt #:    92  of   256
     total cpu time spent up to now is       33.4 secs

     Computing kpt #:    93  of   256
     total cpu time spent up to now is       33.7 secs

     Computing kpt #:    94  of   256
     total cpu time spent up to now is       34.0 secs

     Computing kpt #:    95  of   256
     total cpu time spent up to now is       34.3 secs

     Computing kpt #:    96  of   256
     total cpu time spent up to now is       34.7 secs

     Computing kpt #:    97  of   256
     total cpu time spent up to now is       35.0 secs

     Computing kpt #:    98  of   256
     total cpu time spent up to now is       35.4 secs

     Computing kpt #:    99  of   256
     total cpu time spent up to now is       35.8 secs

     Computing kpt #:   100  of   256
     total cpu time spent up to now is       36.1 secs

     Computing kpt #:   101  of   256
     total cpu time spent up to now is       36.4 secs

     Computing kpt #:   102  of   256
     total cpu time spent up to now is       36.7 secs

     Computing kpt #:   103  of   256
     total cpu time spent up to now is       37.1 secs

     Computing kpt #:   104  of   256
     total cpu time spent up to now is       37.6 secs

     Computing kpt #:   105  of   256
     total cpu time spent up to now is       38.0 secs

     Computing kpt #:   106  of   256
     total cpu time spent up to now is       38.3 secs

     Computing kpt #:   107  of   256
     total cpu time spent up to now is       38.6 secs

     Computing kpt #:   108  of   256
     c_bands:  1 eigenvalues not converged
     total cpu time spent up to now is       39.2 secs

     Computing kpt #:   109  of   256
     total cpu time spent up to now is       39.6 secs

     Computing kpt #:   110  of   256
     total cpu time spent up to now is       40.0 secs

     Computing kpt #:   111  of   256
     total cpu time spent up to now is       40.3 secs

     Computing kpt #:   112  of   256
     total cpu time spent up to now is       40.8 secs

     Computing kpt #:   113  of   256
     total cpu time spent up to now is       41.1 secs

     Computing kpt #:   114  of   256
     total cpu time spent up to now is       41.4 secs

     Computing kpt #:   115  of   256
     total cpu time spent up to now is       41.8 secs

     Computing kpt #:   116  of   256
     total cpu time spent up to now is       42.2 secs

     Computing kpt #:   117  of   256
     total cpu time spent up to now is       42.6 secs

     Computing kpt #:   118  of   256
     total cpu time spent up to now is       42.9 secs

     Computing kpt #:   119  of   256
     total cpu time spent up to now is       43.3 secs

     Computing kpt #:   120  of   256
     total cpu time spent up to now is       43.7 secs

     Computing kpt #:   121  of   256
     total cpu time spent up to now is       44.0 secs

     Computing kpt #:   122  of   256
     total cpu time spent up to now is       44.4 secs

     Computing kpt #:   123  of   256
     total cpu time spent up to now is       44.7 secs

     Computing kpt #:   124  of   256
     total cpu time spent up to now is       45.1 secs

     Computing kpt #:   125  of   256
     total cpu time spent up to now is       45.5 secs

     Computing kpt #:   126  of   256
     total cpu time spent up to now is       45.9 secs

     Computing kpt #:   127  of   256
     total cpu time spent up to now is       46.2 secs

     Computing kpt #:   128  of   256
     total cpu time spent up to now is       46.6 secs

[...]

     occupation numbers 
     1.0000   1.0000   1.0000   1.0000   0.0000   0.0000   0.0000   0.0000
     0.0000   0.0000

          k = 0.6500-0.3500 0.8500 (  2179 PWs)   bands (ev):

    -3.5891   0.0710   2.7924   3.9524   8.4205   9.8387  10.7686  11.8466
    15.4300  15.6012

     occupation numbers 
     1.0000   1.0000   1.0000   1.0000   0.0000   0.0000   0.0000   0.0000
     0.0000   0.0000

          k = 0.6000-0.3000 0.8000 (  2181 PWs)   bands (ev):

    -3.2481  -0.4336   2.6662   3.8735   8.4811   9.6548  11.5858  11.8106
    14.6687  16.1730

     occupation numbers 
     1.0000   1.0000   1.0000   1.0000   0.0000   0.0000   0.0000   0.0000
     0.0000   0.0000

          k = 0.5500-0.2500 0.7500 (  2189 PWs)   bands (ev):

    -3.0408  -0.7159   2.5787   3.8674   8.5736   9.5036  11.7607  12.5073
    13.7033  16.3818

     occupation numbers 
     1.0000   1.0000   1.0000   1.0000   0.0000   0.0000   0.0000   0.0000
     0.0000   0.0000

          k = 0.5000-0.2000 0.7000 (  2189 PWs)   bands (ev):

    -3.0916  -0.6466   2.5324   3.9330   8.7075   9.3910  11.7287  12.7241
    13.5218  15.7808

     occupation numbers 
     1.0000   1.0000   1.0000   1.0000   0.0000   0.0000   0.0000   0.0000
     0.0000   0.0000

          k = 0.4500-0.1500 0.6500 (  2182 PWs)   bands (ev):

    -3.3639  -0.2651   2.5374   4.0620   8.8782   9.3159  11.6494  11.9153
    14.5124  14.9831

     occupation numbers 
     1.0000   1.0000   1.0000   1.0000   0.0000   0.0000   0.0000   0.0000
     0.0000   0.0000

          k = 0.4000-0.1000 0.6000 (  2180 PWs)   bands (ev):

    -3.7232   0.2819   2.6109   4.2410   9.0581   9.2721  11.0544  11.7104
    14.2266  15.4780

     occupation numbers 
     1.0000   1.0000   1.0000   1.0000   0.0000   0.0000   0.0000   0.0000
     0.0000   0.0000

          k = 0.3500-0.0500 0.5500 (  2171 PWs)   bands (ev):

    -4.0879   0.8849   2.7814   4.4515   9.0736   9.3388  10.5232  11.5724
    13.6424  16.2891

     occupation numbers 
     1.0000   1.0000   1.0000   1.0000   0.0000   0.0000   0.0000   0.0000
     0.0000   0.0000

          k = 0.3000-0.0000 0.5000 (  2167 PWs)   bands (ev):

    -4.4226   1.4581   3.0938   4.6658   8.8247   9.4816  10.3384  11.2701
    13.3376  16.4958

     occupation numbers 
     1.0000   1.0000   1.0000   1.0000   0.0000   0.0000   0.0000   0.0000
     0.0000   0.0000

          k =-0.2000 0.6000 0.0000 (  2177 PWs)   bands (ev):

    -4.1661   1.2074   3.2290   3.9305   7.7314   9.0014  11.0605  12.3789
    14.7007  16.4719

     occupation numbers 
     1.0000   1.0000   1.0000   1.0000   0.0000   0.0000   0.0000   0.0000
     0.0000   0.0000

          k =-0.2500 0.6500-0.0500 (  2169 PWs)   bands (ev):

    -3.8305   0.6756   2.8982   3.7517   7.9793   9.1717  10.8821  12.6770
    15.1087  16.7285

     occupation numbers 
     1.0000   1.0000   1.0000   1.0000   0.0000   0.0000   0.0000   0.0000
     0.0000   0.0000

          k = 0.7000-0.3000 0.9000 (  2176 PWs)   bands (ev):

    -3.4647   0.1329   2.6218   3.6137   8.1085   9.6860  10.6880  12.7658
    15.7711  15.8090

     occupation numbers 
     1.0000   1.0000   1.0000   1.0000   0.0000   0.0000   0.0000   0.0000
     0.0000   0.0000

          k = 0.6500-0.2500 0.8500 (  2179 PWs)   bands (ev):

    -3.1045  -0.3605   2.3949   3.5477   8.1871  10.3114  10.6241  12.7485
    14.7897  16.5411

     occupation numbers 
     1.0000   1.0000   1.0000   1.0000   0.0000   0.0000   0.0000   0.0000
     0.0000   0.0000

          k = 0.6000-0.2000 0.8000 (  2190 PWs)   bands (ev):

    -2.8362  -0.7011   2.2205   3.5599   8.2863  10.2670  11.3834  12.6937
    13.7703  16.6378

     occupation numbers 
     1.0000   1.0000   1.0000   1.0000   0.0000   0.0000   0.0000   0.0000
     0.0000   0.0000

          k = 0.5500-0.1500 0.7500 (  2188 PWs)   bands (ev):

    -2.8040  -0.7373   2.1091   3.6446   8.4286  10.1329  12.3054  12.5776
    12.8888  15.8244

     occupation numbers 
     1.0000   1.0000   1.0000   1.0000   0.0000   0.0000   0.0000   0.0000
     0.0000   0.0000

          k = 0.5000-0.1000 0.7000 (  2185 PWs)   bands (ev):

    -3.0312  -0.4504   2.0775   3.7920   8.6170  10.0148  11.8097  12.5791
    13.4368  14.9675

     occupation numbers 
     1.0000   1.0000   1.0000   1.0000   0.0000   0.0000   0.0000   0.0000
     0.0000   0.0000

          k = 0.4500-0.0500 0.6500 (  2181 PWs)   bands (ev):

    -3.3785  -0.0000   2.1526   3.9891   8.8441   9.8737  11.0594  12.4373
    14.2250  14.4978

     occupation numbers 
     1.0000   1.0000   1.0000   1.0000   0.0000   0.0000   0.0000   0.0000
     0.0000   0.0000

          k = 0.4000 0.0000 0.6000 (  2172 PWs)   bands (ev):

    -3.7450   0.4732   2.3753   4.2181   9.0913   9.5727  10.6090  12.1083
    13.7731  15.5200

     occupation numbers 
     1.0000   1.0000   1.0000   1.0000   0.0000   0.0000   0.0000   0.0000
     0.0000   0.0000

          k =-0.2000 0.7000-0.0000 (  2179 PWs)   bands (ev):

    -3.6467   0.4815   2.9867   3.4893   7.5486   8.4639  11.7968  13.3306
    15.6047  17.0072

     occupation numbers 
     1.0000   1.0000   1.0000   1.0000   0.0000   0.0000   0.0000   0.0000
     0.0000   0.0000

          k = 0.7500-0.2500 0.9500 (  2181 PWs)   bands (ev):

    -3.2885   0.0143   2.6623   3.3301   7.8006   8.7455  11.6053  13.6337
    16.0012  16.0919

     occupation numbers 
     1.0000   1.0000   1.0000   1.0000   0.0000   0.0000   0.0000   0.0000
     0.0000   0.0000

          k = 0.7000-0.2000 0.9000 (  2188 PWs)   bands (ev):

    -2.9190  -0.4337   2.3397   3.2643   7.9164   9.3892  11.4087  13.7020
    14.9347  16.7938

     occupation numbers 
     1.0000   1.0000   1.0000   1.0000   0.0000   0.0000   0.0000   0.0000
     0.0000   0.0000

          k = 0.6500-0.1500 0.8500 (  2184 PWs)   bands (ev):

    -2.6050  -0.7895   2.0665   3.2854   8.0180  10.2074  11.2444  13.6081
    13.9317  16.7444

     occupation numbers 
     1.0000   1.0000   1.0000   1.0000   0.0000   0.0000   0.0000   0.0000
     0.0000   0.0000

          k = 0.6000-0.1000 0.8000 (  2180 PWs)   bands (ev):

    -2.4971  -0.9022   1.8783   3.3803   8.1589  10.8633  11.3670  12.8191
    13.6302  15.8651

     occupation numbers 
     1.0000   1.0000   1.0000   1.0000   0.0000   0.0000   0.0000   0.0000
     0.0000   0.0000

          k = 0.5500-0.0500 0.7500 (  2185 PWs)   bands (ev):

    -2.6813  -0.6971   1.8054   3.5378   8.3483  10.8055  11.8541  12.3383
    13.4729  15.0259

     occupation numbers 
     1.0000   1.0000   1.0000   1.0000   0.0000   0.0000   0.0000   0.0000
     0.0000   0.0000

          k = 0.5000-0.0000 0.7000 (  2185 PWs)   bands (ev):

    -3.0152  -0.3446   1.8847   3.7461   8.5819  10.4967  11.2508  13.0267
    13.4545  14.4449

     occupation numbers 
     1.0000   1.0000   1.0000   1.0000   0.0000   0.0000   0.0000   0.0000
     0.0000   0.0000

          k = 0.8000-0.2000 1.0000 (  2174 PWs)   bands (ev):

    -3.0613  -0.2601   2.8290   3.1496   7.4482   8.0377  12.5842  14.2871
    16.2162  16.5171

     occupation numbers 
     1.0000   1.0000   1.0000   1.0000   0.0000   0.0000   0.0000   0.0000
     0.0000   0.0000

          k = 0.7500-0.1500 0.9500 (  2185 PWs)   bands (ev):

    -2.6899  -0.6674   2.5036   3.0401   7.6856   8.4514  12.3875  14.5468
    15.1539  16.9773

     occupation numbers 
     1.0000   1.0000   1.0000   1.0000   0.0000   0.0000   0.0000   0.0000
     0.0000   0.0000

          k = 0.7000-0.1000 0.9000 (  2182 PWs)   bands (ev):

    -2.3442  -1.0172   2.1510   3.0606   7.7960   9.2135  12.1933  13.9402
    14.7161  16.7659

     occupation numbers 
     1.0000   1.0000   1.0000   1.0000   0.0000   0.0000   0.0000   0.0000
     0.0000   0.0000

          k = 0.6500-0.0500 0.8500 (  2190 PWs)   bands (ev):

    -2.1816  -1.1660   1.8794   3.1599   7.9306  10.1151  12.0139  12.9361
    14.5773  15.9308

     occupation numbers 
     1.0000   1.0000   1.0000   1.0000   0.0000   0.0000   0.0000   0.0000
     0.0000   0.0000

          k = 0.6000 0.0000 0.8000 (  2198 PWs)   bands (ev):

    -2.3544  -0.9869   1.7480   3.3225   8.1152  11.0213  11.7956  12.1298
    14.2032  15.2798

     occupation numbers 
     1.0000   1.0000   1.0000   1.0000   0.0000   0.0000   0.0000   0.0000
     0.0000   0.0000

          k = 0.8000-0.1000 1.0000 (  2180 PWs)   bands (ev):

    -2.4179  -1.0022   2.7615   2.9169   7.4394   7.7276  13.4180  15.0076
    15.5590  17.1155

     occupation numbers 
     1.0000   1.0000   1.0000   1.0000   0.0000   0.0000   0.0000   0.0000
     0.0000   0.0000

          k = 0.7500-0.0500 0.9500 (  2181 PWs)   bands (ev):

    -2.0517  -1.3494   2.4239   2.8938   7.6312   8.3003  13.2225  14.1101
    15.6320  16.6728

     occupation numbers 
     1.0000   1.0000   1.0000   1.0000   0.0000   0.0000   0.0000   0.0000
     0.0000   0.0000

          k = 0.7000 0.0000 0.9000 (  2187 PWs)   bands (ev):

    -1.9155  -1.4488   2.0846   2.9946   7.7550   9.1555  12.9314  13.1703
    15.3883  16.1112

     occupation numbers 
     1.0000   1.0000   1.0000   1.0000   0.0000   0.0000   0.0000   0.0000
     0.0000   0.0000

          k =-0.2000-1.0000 0.0000 (  2186 PWs)   bands (ev):

    -1.7270  -1.7270   2.7891   2.7891   7.5302   7.5302  14.2878  14.2878
    16.3441  16.3441

     occupation numbers 
     1.0000   1.0000   1.0000   1.0000   0.0000   0.0000   0.0000   0.0000
     0.0000   0.0000

          k =-0.3000 0.6000-0.0000 (  2175 PWs)   bands (ev):

    -3.9877   0.8611   2.7848   4.0731   8.5884   9.7103  10.0449  12.2569
    14.2724  16.5229

     occupation numbers 
     1.0000   1.0000   1.0000   1.0000   0.0000   0.0000   0.0000   0.0000
     0.0000   0.0000

          k = 0.6500-0.3500 0.9500 (  2176 PWs)   bands (ev):

    -3.6313   0.3497   2.5009   3.8591   8.8656   9.8027  10.0572  12.5689
    14.6834  15.6366

     occupation numbers 
     1.0000   1.0000   1.0000   1.0000   0.0000   0.0000   0.0000   0.0000
     0.0000   0.0000

          k = 0.6000-0.3000 0.9000 (  2183 PWs)   bands (ev):

    -3.2636  -0.1628   2.3320   3.6781   8.9942   9.5807  10.7189  12.6851
    14.6051  15.3667

     occupation numbers 
     1.0000   1.0000   1.0000   1.0000   0.0000   0.0000   0.0000   0.0000
     0.0000   0.0000

          k = 0.5500-0.2500 0.8500 (  2193 PWs)   bands (ev):

    -2.9461  -0.5807   2.2456   3.5585   9.0917   9.3824  11.5609  12.7134
    13.5623  16.1688

     occupation numbers 
     1.0000   1.0000   1.0000   1.0000   0.0000   0.0000   0.0000   0.0000
     0.0000   0.0000

          k = 0.5000-0.2000 0.8000 (  2200 PWs)   bands (ev):

    -2.8073  -0.7551   2.2194   3.5167   9.1938   9.2417  12.3530  12.7026
    12.7197  16.7289

     occupation numbers 
     1.0000   1.0000   1.0000   1.0000   0.0000   0.0000   0.0000   0.0000
     0.0000   0.0000

          k = 0.7000-0.3000 1.0000 (  2179 PWs)   bands (ev):

    -3.4862   0.2517   2.5620   3.5173   8.4135   9.2167  10.6734  13.2647
    15.2732  15.8024

     occupation numbers 
     1.0000   1.0000   1.0000   1.0000   0.0000   0.0000   0.0000   0.0000
     0.0000   0.0000

          k = 0.6500-0.2500 0.9500 (  2185 PWs)   bands (ev):

    -3.1179  -0.1943   2.3065   3.3183   8.6883   9.6356  10.4689  13.5879
    14.7293  15.7615

     occupation numbers 
     1.0000   1.0000   1.0000   1.0000   0.0000   0.0000   0.0000   0.0000
     0.0000   0.0000

          k = 0.6000-0.2000 0.9000 (  2190 PWs)   bands (ev):

    -2.7702  -0.6026   2.1231   3.1989   8.8122  10.1077  10.5564  13.6181
    13.7241  16.4857

     occupation numbers 
     1.0000   1.0000   1.0000   1.0000   0.0000   0.0000   0.0000   0.0000
     0.0000   0.0000

          k = 0.5500-0.1500 0.8500 (  2193 PWs)   bands (ev):

    -2.5542  -0.8466   2.0051   3.1759   8.9372  10.0033  11.3837  12.6170
    13.7042  16.8781

     occupation numbers 
     1.0000   1.0000   1.0000   1.0000   0.0000   0.0000   0.0000   0.0000
     0.0000   0.0000

          k = 0.5000-0.1000 0.8000 (  2189 PWs)   bands (ev):

    -2.6191  -0.7715   1.9595   3.2469   9.1005   9.8631  11.5672  12.4560
    13.6584  16.1635

     occupation numbers 
     1.0000   1.0000   1.0000   1.0000   0.0000   0.0000   0.0000   0.0000
     0.0000   0.0000

          k = 0.4500-0.0500 0.7500 (  2186 PWs)   bands (ev):

    -2.9093  -0.4420   2.0074   3.3989   9.3055   9.7165  10.7426  13.4510
    13.5657  15.3903

     occupation numbers 
     1.0000   1.0000   1.0000   1.0000   0.0000   0.0000   0.0000   0.0000
     0.0000   0.0000

          k = 0.4000 0.0000 0.7000 (  2183 PWs)   bands (ev):

    -3.2718  -0.0344   2.1792   3.6123   9.4128   9.5453  10.1932  13.1761
    14.5860  14.8669

     occupation numbers 
     1.0000   1.0000   1.0000   1.0000   0.0000   0.0000   0.0000   0.0000
     0.0000   0.0000

          k = 0.7000-0.2000 1.0000 (  2184 PWs)   bands (ev):

    -2.9263  -0.3785   2.4345   3.0551   8.3131   8.8272  11.3872  14.2642
    14.9086  16.2719

     occupation numbers 
     1.0000   1.0000   1.0000   1.0000   0.0000   0.0000   0.0000   0.0000
     0.0000   0.0000

          k = 0.6500-0.1500 0.9500 (  2184 PWs)   bands (ev):

    -2.5613  -0.7579   2.2021   2.8984   8.5674   9.3854  11.1796  13.7620
    14.6295  16.7391

     occupation numbers 
     1.0000   1.0000   1.0000   1.0000   0.0000   0.0000   0.0000   0.0000
     0.0000   0.0000

          k = 0.6000-0.1000 0.9000 (  2188 PWs)   bands (ev):

    -2.2824  -1.0372   1.9903   2.8829   8.6975  10.2027  11.0295  12.7059
    14.6900  16.8713

     occupation numbers 
     1.0000   1.0000   1.0000   1.0000   0.0000   0.0000   0.0000   0.0000
     0.0000   0.0000

          k = 0.5500-0.0500 0.8500 (  2195 PWs)   bands (ev):

    -2.2829  -1.0301   1.8576   2.9780   8.8578  10.6481  11.3314  11.7715
    14.5860  16.1907

     occupation numbers 
     1.0000   1.0000   1.0000   1.0000   0.0000   0.0000   0.0000   0.0000
     0.0000   0.0000

          k = 0.5000 0.0000 0.8000 (  2187 PWs)   bands (ev):

    -2.5550  -0.7611   1.8518   3.1570   9.0630  10.4026  10.9484  12.4031
    14.2227  15.6166

     occupation numbers 
     1.0000   1.0000   1.0000   1.0000   0.0000   0.0000   0.0000   0.0000
     0.0000   0.0000

          k = 0.7000-0.1000 1.0000 (  2182 PWs)   bands (ev):

    -2.3193  -1.0269   2.4111   2.7143   8.2969   8.5475  12.1720  13.9207
    15.3373  16.9496

     occupation numbers 
     1.0000   1.0000   1.0000   1.0000   0.0000   0.0000   0.0000   0.0000
     0.0000   0.0000

          k = 0.6500-0.0500 0.9500 (  2188 PWs)   bands (ev):

    -1.9913  -1.3280   2.1738   2.6555   8.5068   9.2581  11.9720  12.8448
    15.6093  16.7190

     occupation numbers 
     1.0000   1.0000   1.0000   1.0000   0.0000   0.0000   0.0000   0.0000
     0.0000   0.0000

          k = 0.6000 0.0000 0.9000 (  2189 PWs)   bands (ev):

    -1.9868  -1.3112   1.9440   2.7736   8.6586  10.1712  11.7280  11.9145
    15.3511  16.3298

     occupation numbers 
     1.0000   1.0000   1.0000   1.0000   0.0000   0.0000   0.0000   0.0000
     0.0000   0.0000

          k =-0.3000-1.0000 0.0000 (  2186 PWs)   bands (ev):

    -1.6801  -1.6801   2.5014   2.5014   8.3727   8.3727  13.0212  13.0212
    16.3272  16.3272

     occupation numbers 
     1.0000   1.0000   1.0000   1.0000   0.0000   0.0000   0.0000   0.0000
     0.0000   0.0000

          k = 0.6000-0.2000 1.0000 (  2182 PWs)   bands (ev):

    -2.7522  -0.5505   2.0918   3.0550   9.3178   9.7157  10.2931  13.6101
    14.2551  15.9595

     occupation numbers 
     1.0000   1.0000   1.0000   1.0000   0.0000   0.0000   0.0000   0.0000
     0.0000   0.0000

          k = 0.5500-0.1500 0.9500 (  2188 PWs)   bands (ev):

    -2.4176  -0.8852   1.9752   2.8753   9.5592   9.9170  10.5746  12.5307
    14.6026  16.4700

     occupation numbers 
     1.0000   1.0000   1.0000   1.0000   0.0000   0.0000   0.0000   0.0000
     0.0000   0.0000

          k = 0.5000-0.1000 0.9000 (  2198 PWs)   bands (ev):

    -2.2570  -1.0473   1.9395   2.8114   9.6129   9.8795  11.2837  11.6862
    14.6903  16.9187

     occupation numbers 
     1.0000   1.0000   1.0000   1.0000   0.0000   0.0000   0.0000   0.0000
     0.0000   0.0000

          k = 0.6000-0.1000 1.0000 (  2188 PWs)   bands (ev):

    -2.2019  -1.0856   2.1260   2.6061   9.2981   9.5075  10.9750  12.6641
    15.3261  16.7639

     occupation numbers 
     1.0000   1.0000   1.0000   1.0000   0.0000   0.0000   0.0000   0.0000
     0.0000   0.0000

          k = 0.5500-0.0500 0.9500 (  2188 PWs)   bands (ev):

    -1.9508  -1.3164   2.0419   2.5105   9.5127  10.2262  10.8671  11.6352
    15.6063  16.7513

     occupation numbers 
     1.0000   1.0000   1.0000   1.0000   0.0000   0.0000   0.0000   0.0000
     0.0000   0.0000

          k = 0.5000 0.0000 0.9000 (  2187 PWs)   bands (ev):

    -2.0851  -1.1837   1.9601   2.6285   9.6677  10.3474  10.7642  11.5079
    15.3334  16.5542

     occupation numbers 
     1.0000   1.0000   1.0000   1.0000   0.0000   0.0000   0.0000   0.0000
     0.0000   0.0000

          k =-0.4000-1.0000 0.0000 (  2184 PWs)   bands (ev):

    -1.6401  -1.6401   2.2947   2.2947   9.3604   9.3604  11.7792  11.7792
    16.3282  16.3282

     occupation numbers 
     1.0000   1.0000   1.0000   1.0000   0.0000   0.0000   0.0000   0.0000
     0.0000   0.0000

          k =-0.5000-1.0000 0.0000 (  2180 PWs)   bands (ev):

    -1.6243  -1.6243   2.2203   2.2203  10.2035  10.2035  10.8519  10.8519
    16.3298  16.3298

     occupation numbers 
     1.0000   1.0000   1.0000   1.0000   0.0000   0.0000   0.0000   0.0000
     0.0000   0.0000

     highest occupied, lowest unoccupied level (ev):     5.9565    6.5662

     Writing all to output data dir ./SCRATCH/silicon.save/

     init_run     :      0.09s CPU      0.10s WALL (       1 calls)
     electrons    :     90.39s CPU     91.18s WALL (       1 calls)

     Called by init_run:
     wfcinit      :      0.00s CPU      0.00s WALL (       1 calls)
     wfcinit:wfcr :      2.61s CPU      2.84s WALL (     256 calls)
     potinit      :      0.03s CPU      0.03s WALL (       1 calls)
     hinit0       :      0.02s CPU      0.02s WALL (       1 calls)

     Called by electrons:
     c_bands      :     90.38s CPU     91.17s WALL (       1 calls)
     v_of_rho     :      0.03s CPU      0.03s WALL (       1 calls)
     v_h          :      0.00s CPU      0.00s WALL (       1 calls)
     v_xc         :      0.03s CPU      0.03s WALL (       1 calls)

     Called by c_bands:
     init_us_2    :      0.02s CPU      0.06s WALL (     256 calls)
     init_us_2:cp :      0.02s CPU      0.06s WALL (     256 calls)
     cegterg      :     87.34s CPU     87.90s WALL (     616 calls)

     Called by sum_band:

     Called by *egterg:
     cdiaghg      :      0.86s CPU      0.88s WALL (   10339 calls)
     cegterg:over :      5.69s CPU      5.40s WALL (   10083 calls)
     cegterg:upda :      2.38s CPU      2.41s WALL (   10083 calls)
     cegterg:last :      4.59s CPU      4.42s WALL (    6933 calls)
     h_psi        :     75.25s CPU     76.17s WALL (   10955 calls)
     g_psi        :      0.25s CPU      0.40s WALL (   10083 calls)

     Called by h_psi:
     h_psi:calbec :      2.69s CPU      2.68s WALL (   10955 calls)
     vloc_psi     :     70.36s CPU     71.27s WALL (   10955 calls)
     add_vuspsi   :      1.94s CPU      1.95s WALL (   10955 calls)

     General routines
     calbec       :      2.67s CPU      2.64s WALL (   10955 calls)
     fft          :      0.00s CPU      0.01s WALL (      10 calls)
     fftw         :     64.73s CPU     65.39s WALL (  145206 calls)
     davcio       :      0.00s CPU      0.05s WALL (     512 calls)


     PWSCF        :   1m30.55s CPU   1m31.46s WALL


   This run was terminated on:  11:49:26   9Jun2024            

=------------------------------------------------------------------------------=
   JOB DONE.
=------------------------------------------------------------------------------=
