
     Program PWSCF v.7.2 starts on 16May2024 at 19:35:12 

     This program is part of the open-source Quantum ESPRESSO suite
     for quantum simulation of materials; please cite
         "P. Giannozzi et al., J. Phys.:Condens. Matter 21 395502 (2009);
         "P. Giannozzi et al., J. Phys.:Condens. Matter 29 465901 (2017);
         "P. Giannozzi et al., J. Chem. Phys. 152 154105 (2020);
          URL http://www.quantum-espresso.org", 
     in publications or presentations arising from this work. More details at
     http://www.quantum-espresso.org/quote

     Serial version
     9652 MiB available memory on the printing compute node when the environment starts

     Waiting for input...
     Reading input from standard input

     Current dimensions of program PWSCF are:
     Max number of different atomic species (ntypx) = 10
     Max number of k-points (npk) =  40000
     Max angular momentum in pseudopotentials (lmaxx) =  4


     G-vector sticks info
     --------------------
     sticks:   dense  smooth     PW     G-vecs:    dense   smooth      PW
     Sum         859     859    253                16625    16625    2741

     Using Slab Decomposition



     bravais-lattice index     =            2
     lattice parameter (alat)  =      10.2079  a.u.
     unit-cell volume          =     265.9215 (a.u.)^3
     number of atoms/cell      =            2
     number of atomic types    =            1
     number of electrons       =         8.00
     number of Kohn-Sham states=            4
     kinetic-energy cutoff     =      60.0000  Ry
     charge density cutoff     =     240.0000  Ry
     scf convergence threshold =      1.0E-08
     mixing beta               =       0.7000
     number of iterations used =            8  plain     mixing
     Exchange-correlation=  SLA  PZ   NOGX NOGC
                           (   1   1   0   0   0   0   0)

     celldm(1)=  10.207933  celldm(2)=   0.000000  celldm(3)=   0.000000
     celldm(4)=   0.000000  celldm(5)=   0.000000  celldm(6)=   0.000000

     crystal axes: (cart. coord. in units of alat)
               a(1) = (  -0.500000   0.000000   0.500000 )  
               a(2) = (   0.000000   0.500000   0.500000 )  
               a(3) = (  -0.500000   0.500000   0.000000 )  

     reciprocal axes: (cart. coord. in units 2 pi/alat)
               b(1) = ( -1.000000 -1.000000  1.000000 )  
               b(2) = (  1.000000  1.000000  1.000000 )  
               b(3) = ( -1.000000  1.000000 -1.000000 )  


     PseudoPot. # 1 for Si read from file:
     /home/paolo/project_labqsm/pseudopotentials/Si.pz-vbc.UPF
     MD5 check sum: dc3b11d017da532b29132e08c0a6883c
     Pseudo is Norm-conserving, Zval =  4.0
     Generated by new atomic code, or converted to UPF format
     Using radial grid of  431 points,  2 beta functions with: 
                l(1) =   0
                l(2) =   1

     atomic species   valence    mass     pseudopotential
        Si             4.00    28.08500     Si( 1.00)

     48 Sym. Ops., with inversion, found (24 have fractional translation)



   Cartesian axes

     site n.     atom                  positions (alat units)
         1           Si  tau(   1) = (   0.0000000   0.0000000   0.0000000  )
         2           Si  tau(   2) = (   0.2500000   0.2500000   0.2500000  )

     number of k points=    29
                       cart. coord. in units 2pi/alat
        k(    1) = (   0.0000000   0.0000000   0.0000000), wk =   0.0039062
        k(    2) = (  -0.1250000   0.1250000  -0.1250000), wk =   0.0312500
        k(    3) = (  -0.2500000   0.2500000  -0.2500000), wk =   0.0312500
        k(    4) = (  -0.3750000   0.3750000  -0.3750000), wk =   0.0312500
        k(    5) = (   0.5000000  -0.5000000   0.5000000), wk =   0.0156250
        k(    6) = (   0.0000000   0.2500000   0.0000000), wk =   0.0234375
        k(    7) = (  -0.1250000   0.3750000  -0.1250000), wk =   0.0937500
        k(    8) = (  -0.2500000   0.5000000  -0.2500000), wk =   0.0937500
        k(    9) = (   0.6250000  -0.3750000   0.6250000), wk =   0.0937500
        k(   10) = (   0.5000000  -0.2500000   0.5000000), wk =   0.0937500
        k(   11) = (   0.3750000  -0.1250000   0.3750000), wk =   0.0937500
        k(   12) = (   0.2500000   0.0000000   0.2500000), wk =   0.0468750
        k(   13) = (   0.0000000   0.5000000   0.0000000), wk =   0.0234375
        k(   14) = (  -0.1250000   0.6250000  -0.1250000), wk =   0.0937500
        k(   15) = (   0.7500000  -0.2500000   0.7500000), wk =   0.0937500
        k(   16) = (   0.6250000  -0.1250000   0.6250000), wk =   0.0937500
        k(   17) = (   0.5000000   0.0000000   0.5000000), wk =   0.0468750
        k(   18) = (   0.0000000   0.7500000   0.0000000), wk =   0.0234375
        k(   19) = (   0.8750000  -0.1250000   0.8750000), wk =   0.0937500
        k(   20) = (   0.7500000   0.0000000   0.7500000), wk =   0.0468750
        k(   21) = (   0.0000000  -1.0000000   0.0000000), wk =   0.0117188
        k(   22) = (  -0.2500000   0.5000000   0.0000000), wk =   0.0937500
        k(   23) = (   0.6250000  -0.3750000   0.8750000), wk =   0.1875000
        k(   24) = (   0.5000000  -0.2500000   0.7500000), wk =   0.0937500
        k(   25) = (   0.7500000  -0.2500000   1.0000000), wk =   0.0937500
        k(   26) = (   0.6250000  -0.1250000   0.8750000), wk =   0.1875000
        k(   27) = (   0.5000000   0.0000000   0.7500000), wk =   0.0937500
        k(   28) = (  -0.2500000  -1.0000000   0.0000000), wk =   0.0468750
        k(   29) = (  -0.5000000  -1.0000000   0.0000000), wk =   0.0234375

     Dense  grid:    16625 G-vectors     FFT dimensions: (  36,  36,  36)

     Estimated max dynamical RAM per process >      14.81 MB

     Initial potential from superposition of free atoms

     starting charge       7.9990, renormalised to       8.0000
     Starting wfcs are    8 randomized atomic wfcs

     total cpu time spent up to now is        0.3 secs

     Self-consistent Calculation

     iteration #  1     ecut=    60.00 Ry     beta= 0.70
     Davidson diagonalization with overlap
     ethr =  1.00E-02,  avg # of iterations =  2.0

     Threshold (ethr) on eigenvalues was too large:
     Diagonalizing with lowered threshold

     Davidson diagonalization with overlap
     ethr =  6.91E-04,  avg # of iterations =  1.2

     total cpu time spent up to now is        0.8 secs

     total energy              =     -15.84960125 Ry
     estimated scf accuracy    <       0.06094194 Ry

     iteration #  2     ecut=    60.00 Ry     beta= 0.70
     Davidson diagonalization with overlap
     ethr =  7.62E-04,  avg # of iterations =  1.0

     total cpu time spent up to now is        1.1 secs

     total energy              =     -15.85282257 Ry
     estimated scf accuracy    <       0.00221946 Ry

     iteration #  3     ecut=    60.00 Ry     beta= 0.70
     Davidson diagonalization with overlap
     ethr =  2.77E-05,  avg # of iterations =  2.3

     total cpu time spent up to now is        1.4 secs

     total energy              =     -15.85331144 Ry
     estimated scf accuracy    <       0.00007388 Ry

     iteration #  4     ecut=    60.00 Ry     beta= 0.70
     Davidson diagonalization with overlap
     ethr =  9.24E-07,  avg # of iterations =  2.8

     total cpu time spent up to now is        1.7 secs

     total energy              =     -15.85334191 Ry
     estimated scf accuracy    <       0.00000269 Ry

     iteration #  5     ecut=    60.00 Ry     beta= 0.70
     Davidson diagonalization with overlap
     ethr =  3.37E-08,  avg # of iterations =  3.5

     total cpu time spent up to now is        2.1 secs

     total energy              =     -15.85334356 Ry
     estimated scf accuracy    <       0.00000010 Ry

     iteration #  6     ecut=    60.00 Ry     beta= 0.70
     Davidson diagonalization with overlap
     ethr =  1.21E-09,  avg # of iterations =  3.7

     total cpu time spent up to now is        2.5 secs

     End of self-consistent calculation

          k = 0.0000 0.0000 0.0000 (  2085 PWs)   bands (ev):

    -5.8303   6.2054   6.2054   6.2054

          k =-0.1250 0.1250-0.1250 (  2088 PWs)   bands (ev):

    -5.6233   4.6045   5.9125   5.9125

          k =-0.2500 0.2500-0.2500 (  2085 PWs)   bands (ev):

    -5.0185   2.2554   5.4367   5.4367

          k =-0.3750 0.3750-0.3750 (  2072 PWs)   bands (ev):

    -4.1062   0.2060   5.1068   5.1068

          k = 0.5000-0.5000 0.5000 (  2060 PWs)   bands (ev):

    -3.4457  -0.8431   4.9941   4.9941

          k = 0.0000 0.2500 0.0000 (  2077 PWs)   bands (ev):

    -5.5536   4.8928   5.3851   5.3851

          k =-0.1250 0.3750-0.1250 (  2071 PWs)   bands (ev):

    -5.0781   2.9795   4.8663   4.9512

          k =-0.2500 0.5000-0.2500 (  2072 PWs)   bands (ev):

    -4.2484   0.8891   4.3526   4.5958

          k = 0.6250-0.3750 0.6250 (  2082 PWs)   bands (ev):

    -3.3618  -0.6072   3.8997   4.6225

          k = 0.5000-0.2500 0.5000 (  2083 PWs)   bands (ev):

    -3.6152  -0.2261   3.7119   4.9250

          k = 0.3750-0.1250 0.3750 (  2083 PWs)   bands (ev):

    -4.5605   1.5593   3.8586   5.4245

          k = 0.2500 0.0000 0.2500 (  2079 PWs)   bands (ev):

    -5.2822   3.5260   4.5439   5.9118

          k = 0.0000 0.5000 0.0000 (  2085 PWs)   bands (ev):

    -4.7333   2.7141   4.2856   4.2856

          k =-0.1250 0.6250-0.1250 (  2081 PWs)   bands (ev):

    -4.0120   1.2739   3.4876   3.9630

          k = 0.7500-0.2500 0.7500 (  2092 PWs)   bands (ev):

    -3.0651  -0.1980   2.6078   3.9672

          k = 0.6250-0.1250 0.6250 (  2090 PWs)   bands (ev):

    -2.8517  -0.4662   2.1371   4.2920

          k = 0.5000 0.0000 0.5000 (  2085 PWs)   bands (ev):

    -3.7525   0.7202   2.3746   4.8608

          k = 0.0000 0.7500 0.0000 (  2084 PWs)   bands (ev):

    -3.4020   0.4702   3.5580   3.5580

          k = 0.8750-0.1250 0.8750 (  2095 PWs)   bands (ev):

    -2.4893  -0.6259   2.6998   3.4810

          k = 0.7500 0.0000 0.7500 (  2097 PWs)   bands (ev):

    -2.0310  -1.0344   1.8045   3.7434

          k = 0.0000-1.0000 0.0000 (  2100 PWs)   bands (ev):

    -1.6272  -1.6272   3.3085   3.3085

          k =-0.2500 0.5000 0.0000 (  2078 PWs)   bands (ev):

    -4.4811   1.9228   3.4388   4.7586

          k = 0.6250-0.3750 0.8750 (  2086 PWs)   bands (ev):

    -3.5752   0.3442   2.8285   4.2434

          k = 0.5000-0.2500 0.7500 (  2092 PWs)   bands (ev):

    -2.9019  -0.6282   2.7034   4.0070

          k = 0.7500-0.2500 1.0000 (  2085 PWs)   bands (ev):

    -3.1975   0.2495   2.7766   3.3919

          k = 0.6250-0.1250 0.8750 (  2094 PWs)   bands (ev):

    -2.3011  -0.7337   2.0572   3.1855

          k = 0.5000 0.0000 0.7500 (  2095 PWs)   bands (ev):

    -2.6574  -0.3676   1.8847   3.5712

          k =-0.2500-1.0000 0.0000 (  2098 PWs)   bands (ev):

    -1.5432  -1.5432   2.7189   2.7189

          k =-0.5000-1.0000 0.0000 (  2120 PWs)   bands (ev):

    -1.4500  -1.4500   2.2651   2.2651

     highest occupied level (ev):     6.2054

!    total energy              =     -15.85334362 Ry
     estimated scf accuracy    <          7.5E-09 Ry

     The total energy is the sum of the following terms:
     one-electron contribution =       4.76644474 Ry
     hartree contribution      =       1.08157079 Ry
     xc contribution           =      -4.81473370 Ry
     ewald contribution        =     -16.88662546 Ry

     convergence has been achieved in   6 iterations

     Writing all to output data dir ./SCRATCH/silicon.save/

     init_run     :      0.23s CPU      0.24s WALL (       1 calls)
     electrons    :      2.09s CPU      2.21s WALL (       1 calls)

     Called by init_run:
     wfcinit      :      0.19s CPU      0.20s WALL (       1 calls)
     potinit      :      0.02s CPU      0.01s WALL (       1 calls)
     hinit0       :      0.02s CPU      0.02s WALL (       1 calls)

     Called by electrons:
     c_bands      :      1.75s CPU      1.86s WALL (       7 calls)
     sum_band     :      0.33s CPU      0.31s WALL (       7 calls)
     v_of_rho     :      0.02s CPU      0.02s WALL (       7 calls)
     mix_rho      :      0.00s CPU      0.01s WALL (       7 calls)

     Called by c_bands:
     init_us_2    :      0.03s CPU      0.07s WALL (     435 calls)
     init_us_2:cp :      0.03s CPU      0.07s WALL (     435 calls)
     cegterg      :      1.73s CPU      1.78s WALL (     203 calls)

     Called by *egterg:
     cdiaghg      :      0.00s CPU      0.02s WALL (     650 calls)
     h_psi        :      1.66s CPU      1.76s WALL (     708 calls)
     g_psi        :      0.06s CPU      0.01s WALL (     476 calls)

     Called by h_psi:
     h_psi:calbec :      0.02s CPU      0.05s WALL (     708 calls)
     vloc_psi     :      1.59s CPU      1.66s WALL (     708 calls)
     add_vuspsi   :      0.05s CPU      0.04s WALL (     708 calls)

     General routines
     calbec       :      0.02s CPU      0.05s WALL (     708 calls)
     fft          :      0.02s CPU      0.01s WALL (      21 calls)
     ffts         :      0.00s CPU      0.00s WALL (       7 calls)
     fftw         :      1.69s CPU      1.72s WALL (    5996 calls)


     PWSCF        :      2.34s CPU      2.51s WALL


   This run was terminated on:  19:35:15  16May2024            

=------------------------------------------------------------------------------=
   JOB DONE.
=------------------------------------------------------------------------------=
