
     Program BANDS v.7.2 starts on 25May2024 at 12:34:30 

     This program is part of the open-source Quantum ESPRESSO suite
     for quantum simulation of materials; please cite
         "P. Giannozzi et al., J. Phys.:Condens. Matter 21 395502 (2009);
         "P. Giannozzi et al., J. Phys.:Condens. Matter 29 465901 (2017);
         "P. Giannozzi et al., J. Chem. Phys. 152 154105 (2020);
          URL http://www.quantum-espresso.org", 
     in publications or presentations arising from this work. More details at
     http://www.quantum-espresso.org/quote

     Serial version
     9186 MiB available memory on the printing compute node when the environment starts


     Reading xml data from directory:

     ./SCRATCH/gallium_arsenide.save/

     IMPORTANT: XC functional enforced from input :
     Exchange-correlation= PZ
                           (   1   1   0   0   0   0   0)
     Any further DFT definition will be discarded
     Please, verify this is what you really want


     G-vector sticks info
     --------------------
     sticks:   dense  smooth     PW     G-vecs:    dense   smooth      PW
     Sum         913     913    265                18149    18149    2891

     Using Slab Decomposition

     Reading collected, re-writing distributed wavefunctions
     high-symmetry point:  0.0000 0.0000 1.0000   x coordinate   0.0000
     high-symmetry point:  0.0000 0.0000 0.0000   x coordinate   1.0000
     high-symmetry point: -0.5000 0.5000 0.5000   x coordinate   1.8660
     high-symmetry point: -0.5000 0.0000 1.0000   x coordinate   2.5731
     high-symmetry point: -0.7500 0.0000 0.7500   x coordinate   2.9267
     high-symmetry point:  0.0000 0.0000 0.0000   x coordinate   3.9873

     Plottable bands (eV) written to file bands_gaas.dat.gnu
     Bands written to file bands_gaas.dat

 **************************************************************************

                    xk=(   0.00000,   0.00000,   1.00000  )

     point group D_2d (-42m)
     there are  5 classes
     the character table:

       E     2S4   C2    2C2'  2s_d 
A_1    1.00  1.00  1.00  1.00  1.00
A_2    1.00  1.00  1.00 -1.00 -1.00
B_1    1.00 -1.00  1.00  1.00 -1.00
B_2    1.00 -1.00  1.00 -1.00  1.00
E      2.00  0.00 -2.00  0.00  0.00

     the symmetry operations in each class and the name of the first element:

     E        1
                                                                 
     2S4      7    8
                                                                 
     C2       2
                                                                 
     2C2'     3    4
                                                                 
     2s_d     5    6
                                                                 

     Band symmetry, D_2d (-42m) point group:

     e(  1 -  1) =     -5.31243  eV     1   --> B_2  X_3  W_2  
     e(  2 -  2) =     -1.78582  eV     1   --> A_1  X_1  W_1  
     e(  3 -  4) =      2.42600  eV     2   --> E    X_5  W_3  
     e(  5 -  5) =      6.53204  eV     1   --> B_2  X_3  W_2  
     e(  6 -  6) =      6.83841  eV     1   --> A_1  X_1  W_1  
     e(  7 -  8) =     15.63814  eV     2   --> E    X_5  W_3  
     e(  9 -  9) =     16.73076  eV     1   --> A_1  X_1  W_1  
     e( 10 - 11) =     18.88036  eV     2   --> E    X_5  W_3  
     e( 12 - 12) =     19.10917  eV     1   --> B_2  X_3  W_2  

 **************************************************************************

 **************************************************************************

                    xk=(   0.00000,   0.00000,   0.97500  )

     point group C_2v (mm2) 
     there are  4 classes
     the character table:

       E     C2    s_v   s_v' 
A_1    1.00  1.00  1.00  1.00
A_2    1.00  1.00 -1.00 -1.00
B_1    1.00 -1.00  1.00 -1.00
B_2    1.00 -1.00 -1.00  1.00

     the symmetry operations in each class and the name of the first element:

     E        1
                                                                 
     C2       2
                                                                 
     s_v      3
                                                                 
     s_v'     4
                                                                 

     Band symmetry, C_2v (mm2)  point group:

     e(  1 -  1) =     -5.32007  eV     1   --> A_1  D_1  S_1  
     e(  2 -  2) =     -1.77467  eV     1   --> A_1  D_1  S_1  
     e(  3 -  4) =      2.42862  eV     2   --> B_1  D_3  S_3  
     e(  3 -  4) =      2.42862  eV     2   --> B_2  D_4  S_4  
     e(  5 -  5) =      6.53016  eV     1   --> A_1  D_1  S_1  
     e(  6 -  6) =      6.84781  eV     1   --> A_1  D_1  S_1  
     e(  7 -  8) =     15.61610  eV     2   --> B_1  D_3  S_3  
     e(  7 -  8) =     15.61610  eV     2   --> B_2  D_4  S_4  
     e(  9 -  9) =     16.71045  eV     1   --> A_1  D_1  S_1  
     e( 10 - 11) =     18.90561  eV     2   --> B_1  D_3  S_3  
     e( 10 - 11) =     18.90561  eV     2   --> B_2  D_4  S_4  
     e( 12 - 12) =     19.11645  eV     1   --> A_1  D_1  S_1  

 **************************************************************************

 **************************************************************************

                    xk=(   0.00000,   0.00000,   0.95000  )

     Band symmetry, C_2v (mm2)  point group:

     e(  1 -  1) =     -5.34267  eV     1   --> A_1  D_1  S_1  
     e(  2 -  2) =     -1.74156  eV     1   --> A_1  D_1  S_1  
     e(  3 -  4) =      2.43648  eV     2   --> B_1  D_3  S_3  
     e(  3 -  4) =      2.43648  eV     2   --> B_2  D_4  S_4  
     e(  5 -  5) =      6.52558  eV     1   --> A_1  D_1  S_1  
     e(  6 -  6) =      6.87492  eV     1   --> A_1  D_1  S_1  
     e(  7 -  8) =     15.55191  eV     2   --> B_1  D_3  S_3  
     e(  7 -  8) =     15.55191  eV     2   --> B_2  D_4  S_4  
     e(  9 -  9) =     16.65088  eV     1   --> A_1  D_1  S_1  
     e( 10 - 11) =     18.97940  eV     2   --> B_1  D_3  S_3  
     e( 10 - 11) =     18.97940  eV     2   --> B_2  D_4  S_4  
     e( 12 - 12) =     19.13670  eV     1   --> A_1  D_1  S_1  

 **************************************************************************

 **************************************************************************

                    xk=(   0.00000,   0.00000,   0.92500  )

     Band symmetry, C_2v (mm2)  point group:

     e(  1 -  1) =     -5.37935  eV     1   --> A_1  D_1  S_1  
     e(  2 -  2) =     -1.68737  eV     1   --> A_1  D_1  S_1  
     e(  3 -  4) =      2.44957  eV     2   --> B_1  D_3  S_3  
     e(  3 -  4) =      2.44957  eV     2   --> B_2  D_4  S_4  
     e(  5 -  5) =      6.52065  eV     1   --> A_1  D_1  S_1  
     e(  6 -  6) =      6.91735  eV     1   --> A_1  D_1  S_1  
     e(  7 -  8) =     15.45066  eV     2   --> B_1  D_3  S_3  
     e(  7 -  8) =     15.45066  eV     2   --> B_2  D_4  S_4  
     e(  9 -  9) =     16.55565  eV     1   --> A_1  D_1  S_1  
     e( 10 - 11) =     19.09661  eV     2   --> B_1  D_3  S_3  
     e( 10 - 11) =     19.09661  eV     2   --> B_2  D_4  S_4  
     e( 12 - 12) =     19.16564  eV     1   --> A_1  D_1  S_1  

 **************************************************************************

 **************************************************************************

                    xk=(   0.00000,   0.00000,   0.90000  )

     Band symmetry, C_2v (mm2)  point group:

     e(  1 -  1) =     -5.42875  eV     1   --> A_1  D_1  S_1  
     e(  2 -  2) =     -1.61347  eV     1   --> A_1  D_1  S_1  
     e(  3 -  4) =      2.46788  eV     2   --> B_1  D_3  S_3  
     e(  3 -  4) =      2.46788  eV     2   --> B_2  D_4  S_4  
     e(  5 -  5) =      6.51772  eV     1   --> A_1  D_1  S_1  
     e(  6 -  6) =      6.97270  eV     1   --> A_1  D_1  S_1  
     e(  7 -  8) =     15.31894  eV     2   --> B_1  D_3  S_3  
     e(  7 -  8) =     15.31894  eV     2   --> B_2  D_4  S_4  
     e(  9 -  9) =     16.42962  eV     1   --> A_1  D_1  S_1  
     e( 10 - 10) =     19.10393  eV     1   --> A_2  D_2  S_2  
     e( 11 - 11) =     19.19733  eV     1   --> A_1  D_1  S_1  
     e( 12 - 12) =     19.25056  eV     1   -->   ?

 **************************************************************************

 **************************************************************************

                    xk=(   0.00000,   0.00000,   0.87500  )

     Band symmetry, C_2v (mm2)  point group:

     e(  1 -  1) =     -5.48927  eV     1   --> A_1  D_1  S_1  
     e(  2 -  2) =     -1.52151  eV     1   --> A_1  D_1  S_1  
     e(  3 -  4) =      2.49138  eV     2   --> B_1  D_3  S_3  
     e(  3 -  4) =      2.49138  eV     2   --> B_2  D_4  S_4  
     e(  5 -  5) =      6.51847  eV     1   --> A_1  D_1  S_1  
     e(  6 -  6) =      7.03914  eV     1   --> A_1  D_1  S_1  
     e(  7 -  8) =     15.16338  eV     2   --> B_1  D_3  S_3  
     e(  7 -  8) =     15.16338  eV     2   --> B_2  D_4  S_4  
     e(  9 -  9) =     16.27789  eV     1   --> A_1  D_1  S_1  
     e( 10 - 10) =     18.93060  eV     1   --> A_2  D_2  S_2  
     e( 11 - 11) =     19.22532  eV     1   --> A_1  D_1  S_1  
     e( 12 - 12) =     19.43450  eV     1   -->   ?

 **************************************************************************

 **************************************************************************

                    xk=(   0.00000,   0.00000,   0.85000  )

     Band symmetry, C_2v (mm2)  point group:

     e(  1 -  1) =     -5.55915  eV     1   --> A_1  D_1  S_1  
     e(  2 -  2) =     -1.41328  eV     1   --> A_1  D_1  S_1  
     e(  3 -  4) =      2.52006  eV     2   --> B_1  D_3  S_3  
     e(  3 -  4) =      2.52006  eV     2   --> B_2  D_4  S_4  
     e(  5 -  5) =      6.52401  eV     1   --> A_1  D_1  S_1  
     e(  6 -  6) =      7.11546  eV     1   --> A_1  D_1  S_1  
     e(  7 -  8) =     14.98972  eV     2   --> B_1  D_3  S_3  
     e(  7 -  8) =     14.98972  eV     2   --> B_2  D_4  S_4  
     e(  9 -  9) =     16.10515  eV     1   --> A_1  D_1  S_1  
     e( 10 - 10) =     18.75229  eV     1   --> A_2  D_2  S_2  
     e( 11 - 11) =     19.24341  eV     1   --> A_1  D_1  S_1  
     e( 12 - 12) =     19.64247  eV     1   -->   ?

 **************************************************************************

 **************************************************************************

                    xk=(   0.00000,   0.00000,   0.82500  )

     Band symmetry, C_2v (mm2)  point group:

     e(  1 -  1) =     -5.63666  eV     1   --> A_1  D_1  S_1  
     e(  2 -  2) =     -1.29055  eV     1   --> A_1  D_1  S_1  
     e(  3 -  4) =      2.55386  eV     2   --> B_1  D_3  S_3  
     e(  3 -  4) =      2.55386  eV     2   --> B_2  D_4  S_4  
     e(  5 -  5) =      6.53499  eV     1   --> A_1  D_1  S_1  
     e(  6 -  6) =      7.20079  eV     1   --> A_1  D_1  S_1  
     e(  7 -  8) =     14.80260  eV     2   --> B_1  D_3  S_3  
     e(  7 -  8) =     14.80260  eV     2   --> B_2  D_4  S_4  
     e(  9 -  9) =     15.91546  eV     1   --> A_1  D_1  S_1  
     e( 10 - 10) =     18.57280  eV     1   --> A_2  D_2  S_2  
     e( 11 - 11) =     19.24613  eV     1   --> A_1  D_1  S_1  
     e( 12 - 12) =     19.86950  eV     1   -->   ?

 **************************************************************************

 **************************************************************************

                    xk=(   0.00000,   0.00000,   0.80000  )

     Band symmetry, C_2v (mm2)  point group:

     e(  1 -  1) =     -5.72016  eV     1   --> A_1  D_1  S_1  
     e(  2 -  2) =     -1.15499  eV     1   --> A_1  D_1  S_1  
     e(  3 -  4) =      2.59276  eV     2   --> B_1  D_3  S_3  
     e(  3 -  4) =      2.59276  eV     2   --> B_2  D_4  S_4  
     e(  5 -  5) =      6.55180  eV     1   --> A_1  D_1  S_1  
     e(  6 -  6) =      7.29449  eV     1   --> A_1  D_1  S_1  
     e(  7 -  8) =     14.60557  eV     2   --> B_1  D_3  S_3  
     e(  7 -  8) =     14.60557  eV     2   --> B_2  D_4  S_4  
     e(  9 -  9) =     15.71219  eV     1   --> A_1  D_1  S_1  
     e( 10 - 10) =     18.39442  eV     1   --> A_2  D_2  S_2  
     e( 11 - 11) =     19.22898  eV     1   --> A_1  D_1  S_1  
     e( 12 - 12) =     20.11145  eV     1   -->   ?

 **************************************************************************

 **************************************************************************

                    xk=(   0.00000,   0.00000,   0.77500  )

     Band symmetry, C_2v (mm2)  point group:

     e(  1 -  1) =     -5.80818  eV     1   --> A_1  D_1  S_1  
     e(  2 -  2) =     -1.00815  eV     1   --> A_1  D_1  S_1  
     e(  3 -  4) =      2.63670  eV     2   --> B_1  D_3  S_3  
     e(  3 -  4) =      2.63670  eV     2   --> B_2  D_4  S_4  
     e(  5 -  5) =      6.57466  eV     1   --> A_1  D_1  S_1  
     e(  6 -  6) =      7.39605  eV     1   --> A_1  D_1  S_1  
     e(  7 -  8) =     14.40133  eV     2   --> B_1  D_3  S_3  
     e(  7 -  8) =     14.40133  eV     2   --> B_2  D_4  S_4  
     e(  9 -  9) =     15.49819  eV     1   --> A_1  D_1  S_1  
     e( 10 - 10) =     18.21857  eV     1   --> A_2  D_2  S_2  
     e( 11 - 11) =     19.18864  eV     1   --> A_1  D_1  S_1  
     e( 12 - 12) =     20.36445  eV     1   -->   ?

 **************************************************************************

 **************************************************************************

                    xk=(   0.00000,   0.00000,   0.75000  )

     Band symmetry, C_2v (mm2)  point group:

     e(  1 -  1) =     -5.89941  eV     1   --> A_1  D_1  S_1  
     e(  2 -  2) =     -0.85137  eV     1   --> A_1  D_1  S_1  
     e(  3 -  4) =      2.68563  eV     2   --> B_1  D_3  S_3  
     e(  3 -  4) =      2.68563  eV     2   --> B_2  D_4  S_4  
     e(  5 -  5) =      6.60366  eV     1   --> A_1  D_1  S_1  
     e(  6 -  6) =      7.50495  eV     1   --> A_1  D_1  S_1  
     e(  7 -  8) =     14.19188  eV     2   --> B_1  D_3  S_3  
     e(  7 -  8) =     14.19188  eV     2   --> B_2  D_4  S_4  
     e(  9 -  9) =     15.27585  eV     1   --> A_1  D_1  S_1  
     e( 10 - 10) =     18.04620  eV     1   --> A_2  D_2  S_2  
     e( 11 - 11) =     19.12299  eV     1   --> A_1  D_1  S_1  
     e( 12 - 12) =     20.62369  eV     1   -->   ?

 **************************************************************************

 **************************************************************************

                    xk=(   0.00000,   0.00000,   0.72500  )

     Band symmetry, C_2v (mm2)  point group:

     e(  1 -  1) =     -5.99271  eV     1   --> A_1  D_1  S_1  
     e(  2 -  2) =     -0.68586  eV     1   --> A_1  D_1  S_1  
     e(  3 -  4) =      2.73948  eV     2   --> B_1  D_3  S_3  
     e(  3 -  4) =      2.73948  eV     2   --> B_2  D_4  S_4  
     e(  5 -  5) =      6.63885  eV     1   --> A_1  D_1  S_1  
     e(  6 -  6) =      7.62066  eV     1   --> A_1  D_1  S_1  
     e(  7 -  8) =     13.97874  eV     2   --> B_1  D_3  S_3  
     e(  7 -  8) =     13.97874  eV     2   --> B_2  D_4  S_4  
     e(  9 -  9) =     15.04730  eV     1   --> A_1  D_1  S_1  
     e( 10 - 10) =     17.87793  eV     1   --> A_2  D_2  S_2  
     e( 11 - 11) =     19.03116  eV     1   --> A_1  D_1  S_1  
     e( 12 - 12) =     20.87892  eV     1   -->   ?

 **************************************************************************

 **************************************************************************

                    xk=(   0.00000,   0.00000,   0.70000  )

     Band symmetry, C_2v (mm2)  point group:

     e(  1 -  1) =     -6.08714  eV     1   --> A_1  D_1  S_1  
     e(  2 -  2) =     -0.51263  eV     1   --> A_1  D_1  S_1  
     e(  3 -  4) =      2.79818  eV     2   --> B_1  D_3  S_3  
     e(  3 -  4) =      2.79818  eV     2   --> B_2  D_4  S_4  
     e(  5 -  5) =      6.68020  eV     1   --> A_1  D_1  S_1  
     e(  6 -  6) =      7.74256  eV     1   --> A_1  D_1  S_1  
     e(  7 -  8) =     13.76304  eV     2   --> B_1  D_3  S_3  
     e(  7 -  8) =     13.76304  eV     2   --> B_2  D_4  S_4  
     e(  9 -  9) =     14.81447  eV     1   --> A_1  D_1  S_1  
     e( 10 - 10) =     17.71420  eV     1   --> A_2  D_2  S_2  
     e( 11 - 11) =     18.91342  eV     1   --> A_1  D_1  S_1  
     e( 12 - 12) =     21.08866  eV     1   -->   ?

 **************************************************************************

 **************************************************************************

                    xk=(   0.00000,   0.00000,   0.67500  )

     Band symmetry, C_2v (mm2)  point group:

     e(  1 -  1) =     -6.18185  eV     1   --> A_1  D_1  S_1  
     e(  2 -  2) =     -0.33258  eV     1   --> A_1  D_1  S_1  
     e(  3 -  4) =      2.86164  eV     2   --> B_1  D_3  S_3  
     e(  3 -  4) =      2.86164  eV     2   --> B_2  D_4  S_4  
     e(  5 -  5) =      6.72764  eV     1   --> A_1  D_1  S_1  
     e(  6 -  6) =      7.86991  eV     1   --> A_1  D_1  S_1  
     e(  7 -  8) =     13.54566  eV     2   --> B_1  D_3  S_3  
     e(  7 -  8) =     13.54566  eV     2   --> B_2  D_4  S_4  
     e(  9 -  9) =     14.57923  eV     1   --> A_1  D_1  S_1  
     e( 10 - 10) =     17.55532  eV     1   --> A_2  D_2  S_2  
     e( 11 - 11) =     18.77098  eV     1   --> A_1  D_1  S_1  
     e( 12 - 12) =     21.08905  eV     1   -->   ?

 **************************************************************************

 **************************************************************************

                    xk=(   0.00000,   0.00000,   0.65000  )

     Band symmetry, C_2v (mm2)  point group:

     e(  1 -  1) =     -6.27615  eV     1   --> A_1  D_1  S_1  
     e(  2 -  2) =     -0.14647  eV     1   --> A_1  D_1  S_1  
     e(  3 -  4) =      2.92976  eV     2   --> B_1  D_3  S_3  
     e(  3 -  4) =      2.92976  eV     2   --> B_2  D_4  S_4  
     e(  5 -  5) =      6.78110  eV     1   --> A_1  D_1  S_1  
     e(  6 -  6) =      8.00175  eV     1   --> A_1  D_1  S_1  
     e(  7 -  8) =     13.32728  eV     2   --> B_1  D_3  S_3  
     e(  7 -  8) =     13.32728  eV     2   --> B_2  D_4  S_4  
     e(  9 -  9) =     14.34351  eV     1   --> A_1  D_1  S_1  
     e( 10 - 10) =     17.40153  eV     1   --> A_2  D_2  S_2  
     e( 11 - 11) =     18.60576  eV     1   --> A_1  D_1  S_1  
     e( 12 - 12) =     20.87713  eV     1   -->   ?

 **************************************************************************

 **************************************************************************

                    xk=(   0.00000,   0.00000,   0.62500  )

     Band symmetry, C_2v (mm2)  point group:

     e(  1 -  1) =     -6.36946  eV     1   --> A_1  D_1  S_1  
     e(  2 -  2) =      0.04503  eV     1   --> A_1  D_1  S_1  
     e(  3 -  4) =      3.00244  eV     2   --> B_1  D_3  S_3  
     e(  3 -  4) =      3.00244  eV     2   --> B_2  D_4  S_4  
     e(  5 -  5) =      6.84046  eV     1   --> A_1  D_1  S_1  
     e(  6 -  6) =      8.13688  eV     1   --> A_1  D_1  S_1  
     e(  7 -  8) =     13.10845  eV     2   --> B_1  D_3  S_3  
     e(  7 -  8) =     13.10845  eV     2   --> B_2  D_4  S_4  
     e(  9 -  9) =     14.10934  eV     1   --> A_1  D_1  S_1  
     e( 10 - 10) =     17.25300  eV     1   --> A_2  D_2  S_2  
     e( 11 - 11) =     18.42018  eV     1   --> A_1  D_1  S_1  
     e( 12 - 12) =     20.61940  eV     1   -->   ?

 **************************************************************************

 **************************************************************************

                    xk=(   0.00000,   0.00000,   0.60000  )

     Band symmetry, C_2v (mm2)  point group:

     e(  1 -  1) =     -6.46126  eV     1   --> A_1  D_1  S_1  
     e(  2 -  2) =      0.24137  eV     1   --> A_1  D_1  S_1  
     e(  3 -  4) =      3.07954  eV     2   --> B_1  D_3  S_3  
     e(  3 -  4) =      3.07954  eV     2   --> B_2  D_4  S_4  
     e(  5 -  5) =      6.90557  eV     1   --> A_1  D_1  S_1  
     e(  6 -  6) =      8.27375  eV     1   --> A_1  D_1  S_1  
     e(  7 -  8) =     12.88961  eV     2   --> B_1  D_3  S_3  
     e(  7 -  8) =     12.88961  eV     2   --> B_2  D_4  S_4  
     e(  9 -  9) =     13.87901  eV     1   --> A_1  D_1  S_1  
     e( 10 - 10) =     17.10986  eV     1   --> A_2  D_2  S_2  
     e( 11 - 11) =     18.21691  eV     1   --> A_1  D_1  S_1  
     e( 12 - 12) =     20.35794  eV     1   -->   ?

 **************************************************************************

 **************************************************************************

                    xk=(   0.00000,   0.00000,   0.57500  )

     Band symmetry, C_2v (mm2)  point group:

     e(  1 -  1) =     -6.55113  eV     1   --> A_1  D_1  S_1  
     e(  2 -  2) =      0.44206  eV     1   --> A_1  D_1  S_1  
     e(  3 -  4) =      3.16093  eV     2   --> B_1  D_3  S_3  
     e(  3 -  4) =      3.16093  eV     2   --> B_2  D_4  S_4  
     e(  5 -  5) =      6.97628  eV     1   --> A_1  D_1  S_1  
     e(  6 -  6) =      8.41032  eV     1   --> A_1  D_1  S_1  
     e(  7 -  8) =     12.67116  eV     2   --> B_1  D_3  S_3  
     e(  7 -  8) =     12.67116  eV     2   --> B_2  D_4  S_4  
     e(  9 -  9) =     13.65521  eV     1   --> A_1  D_1  S_1  
     e( 10 - 10) =     16.97221  eV     1   --> A_2  D_2  S_2  
     e( 11 - 11) =     17.99868  eV     1   --> A_1  D_1  S_1  
     e( 12 - 12) =     20.10184  eV     1   -->   ?

 **************************************************************************

 **************************************************************************

                    xk=(   0.00000,   0.00000,   0.55000  )

     Band symmetry, C_2v (mm2)  point group:

     e(  1 -  1) =     -6.63871  eV     1   --> A_1  D_1  S_1  
     e(  2 -  2) =      0.64667  eV     1   --> A_1  D_1  S_1  
     e(  3 -  4) =      3.24644  eV     2   --> B_1  D_3  S_3  
     e(  3 -  4) =      3.24644  eV     2   --> B_2  D_4  S_4  
     e(  5 -  5) =      7.05238  eV     1   --> A_1  D_1  S_1  
     e(  6 -  6) =      8.54397  eV     1   --> A_1  D_1  S_1  
     e(  7 -  8) =     12.45345  eV     2   --> B_1  D_3  S_3  
     e(  7 -  8) =     12.45345  eV     2   --> B_2  D_4  S_4  
     e(  9 -  9) =     13.44115  eV     1   --> A_1  D_1  S_1  
     e( 10 - 10) =     16.84014  eV     1   --> A_2  D_2  S_2  
     e( 11 - 11) =     17.76823  eV     1   --> A_1  D_1  S_1  
     e( 12 - 12) =     19.85407  eV     1   -->   ?

 **************************************************************************

 **************************************************************************

                    xk=(   0.00000,   0.00000,   0.52500  )

     Band symmetry, C_2v (mm2)  point group:

     e(  1 -  1) =     -6.72371  eV     1   --> A_1  D_1  S_1  
     e(  2 -  2) =      0.85483  eV     1   --> A_1  D_1  S_1  
     e(  3 -  4) =      3.33589  eV     2   --> B_1  D_3  S_3  
     e(  3 -  4) =      3.33589  eV     2   --> B_2  D_4  S_4  
     e(  5 -  5) =      7.13364  eV     1   --> A_1  D_1  S_1  
     e(  6 -  6) =      8.67129  eV     1   --> A_1  D_1  S_1  
     e(  7 -  8) =     12.23681  eV     2   --> B_1  D_3  S_3  
     e(  7 -  8) =     12.23681  eV     2   --> B_2  D_4  S_4  
     e(  9 -  9) =     13.24071  eV     1   --> A_1  D_1  S_1  
     e( 10 - 10) =     16.71370  eV     1   --> A_2  D_2  S_2  
     e( 11 - 11) =     17.52816  eV     1   --> A_1  D_1  S_1  
     e( 12 - 12) =     19.61588  eV     1   -->   ?

 **************************************************************************

 **************************************************************************

                    xk=(   0.00000,   0.00000,   0.50000  )

     Band symmetry, C_2v (mm2)  point group:

     e(  1 -  1) =     -6.80584  eV     1   --> A_1  D_1  S_1  
     e(  2 -  2) =      1.06622  eV     1   --> A_1  D_1  S_1  
     e(  3 -  4) =      3.42906  eV     2   --> B_1  D_3  S_3  
     e(  3 -  4) =      3.42906  eV     2   --> B_2  D_4  S_4  
     e(  5 -  5) =      7.21981  eV     1   --> A_1  D_1  S_1  
     e(  6 -  6) =      8.78797  eV     1   --> A_1  D_1  S_1  
     e(  7 -  8) =     12.02156  eV     2   --> B_1  D_3  S_3  
     e(  7 -  8) =     12.02156  eV     2   --> B_2  D_4  S_4  
     e(  9 -  9) =     13.05868  eV     1   --> A_1  D_1  S_1  
     e( 10 - 10) =     16.59296  eV     1   --> A_2  D_2  S_2  
     e( 11 - 11) =     17.28087  eV     1   --> A_1  D_1  S_1  
     e( 12 - 12) =     19.38792  eV     1   -->   ?

 **************************************************************************

 **************************************************************************

                    xk=(   0.00000,   0.00000,   0.47500  )

     Band symmetry, C_2v (mm2)  point group:

     e(  1 -  1) =     -6.88488  eV     1   --> A_1  D_1  S_1  
     e(  2 -  2) =      1.28054  eV     1   --> A_1  D_1  S_1  
     e(  3 -  4) =      3.52572  eV     2   --> B_1  D_3  S_3  
     e(  3 -  4) =      3.52572  eV     2   --> B_2  D_4  S_4  
     e(  5 -  5) =      7.31057  eV     1   --> A_1  D_1  S_1  
     e(  6 -  6) =      8.88871  eV     1   --> A_1  D_1  S_1  
     e(  7 -  8) =     11.80807  eV     2   --> B_1  D_3  S_3  
     e(  7 -  8) =     11.80807  eV     2   --> B_2  D_4  S_4  
     e(  9 -  9) =     12.90075  eV     1   --> A_1  D_1  S_1  
     e( 10 - 10) =     16.47795  eV     1   --> A_2  D_2  S_2  
     e( 11 - 11) =     17.02862  eV     1   --> A_1  D_1  S_1  
     e( 12 - 12) =     19.17058  eV     1   -->   ?

 **************************************************************************

 **************************************************************************

                    xk=(   0.00000,   0.00000,   0.45000  )

     Band symmetry, C_2v (mm2)  point group:

     e(  1 -  1) =     -6.96065  eV     1   --> A_1  D_1  S_1  
     e(  2 -  2) =      1.49754  eV     1   --> A_1  D_1  S_1  
     e(  3 -  4) =      3.62559  eV     2   --> B_1  D_3  S_3  
     e(  3 -  4) =      3.62559  eV     2   --> B_2  D_4  S_4  
     e(  5 -  5) =      7.40552  eV     1   --> A_1  D_1  S_1  
     e(  6 -  6) =      8.96739  eV     1   --> A_1  D_1  S_1  
     e(  7 -  8) =     11.59668  eV     2   --> B_1  D_3  S_3  
     e(  7 -  8) =     11.59668  eV     2   --> B_2  D_4  S_4  
     e(  9 -  9) =     12.77340  eV     1   --> A_1  D_1  S_1  
     e( 10 - 10) =     16.36871  eV     1   --> A_2  D_2  S_2  
     e( 11 - 11) =     16.77342  eV     1   --> A_1  D_1  S_1  
     e( 12 - 12) =     18.96412  eV     1   -->   ?

 **************************************************************************

 **************************************************************************

                    xk=(   0.00000,   0.00000,   0.42500  )

     Band symmetry, C_2v (mm2)  point group:

     e(  1 -  1) =     -7.03298  eV     1   --> A_1  D_1  S_1  
     e(  2 -  2) =      1.71699  eV     1   --> A_1  D_1  S_1  
     e(  3 -  4) =      3.72834  eV     2   --> B_1  D_3  S_3  
     e(  3 -  4) =      3.72834  eV     2   --> B_2  D_4  S_4  
     e(  5 -  5) =      7.50421  eV     1   --> A_1  D_1  S_1  
     e(  6 -  6) =      9.01761  eV     1   --> A_1  D_1  S_1  
     e(  7 -  8) =     11.38780  eV     2   --> B_1  D_3  S_3  
     e(  7 -  8) =     11.38780  eV     2   --> B_2  D_4  S_4  
     e(  9 -  9) =     12.68336  eV     1   --> A_1  D_1  S_1  
     e( 10 - 10) =     16.26527  eV     1   --> A_2  D_2  S_2  
     e( 11 - 11) =     16.51715  eV     1   --> A_1  D_1  S_1  
     e( 12 - 12) =     18.76868  eV     1   -->   ?

 **************************************************************************

 **************************************************************************

                    xk=(   0.00000,   0.00000,   0.40000  )

     Band symmetry, C_2v (mm2)  point group:

     e(  1 -  1) =     -7.10172  eV     1   --> A_1  D_1  S_1  
     e(  2 -  2) =      1.93865  eV     1   --> A_1  D_1  S_1  
     e(  3 -  4) =      3.83361  eV     2   --> B_1  D_3  S_3  
     e(  3 -  4) =      3.83361  eV     2   --> B_2  D_4  S_4  
     e(  5 -  5) =      7.60602  eV     1   --> A_1  D_1  S_1  
     e(  6 -  6) =      9.03376  eV     1   --> A_1  D_1  S_1  
     e(  7 -  8) =     11.18188  eV     2   --> B_1  D_3  S_3  
     e(  7 -  8) =     11.18188  eV     2   --> B_2  D_4  S_4  
     e(  9 -  9) =     12.63657  eV     1   --> A_1  D_1  S_1  
     e( 10 - 10) =     16.16765  eV     1   --> A_2  D_2  S_2  
     e( 11 - 11) =     16.26152  eV     1   --> A_1  D_1  S_1  
     e( 12 - 12) =     18.58439  eV     1   -->   ?

 **************************************************************************

 **************************************************************************

                    xk=(   0.00000,   0.00000,   0.37500  )

     Band symmetry, C_2v (mm2)  point group:

     e(  1 -  1) =     -7.16676  eV     1   --> A_1  D_1  S_1  
     e(  2 -  2) =      2.16232  eV     1   --> A_1  D_1  S_1  
     e(  3 -  4) =      3.94097  eV     2   --> B_1  D_3  S_3  
     e(  3 -  4) =      3.94097  eV     2   --> B_2  D_4  S_4  
     e(  5 -  5) =      7.71013  eV     1   --> A_1  D_1  S_1  
     e(  6 -  6) =      9.01243  eV     1   --> A_1  D_1  S_1  
     e(  7 -  8) =     10.97942  eV     2   --> B_1  D_3  S_3  
     e(  7 -  8) =     10.97942  eV     2   --> B_2  D_4  S_4  
     e(  9 -  9) =     12.63685  eV     1   --> A_1  D_1  S_1  
     e( 10 - 10) =     16.00814  eV     1   --> A_1  D_1  S_1  
     e( 11 - 11) =     16.07588  eV     1   --> A_2  D_2  S_2  
     e( 12 - 12) =     18.41133  eV     1   -->   ?

 **************************************************************************

 **************************************************************************

                    xk=(   0.00000,   0.00000,   0.35000  )

     Band symmetry, C_2v (mm2)  point group:

     e(  1 -  1) =     -7.22798  eV     1   --> A_1  D_1  S_1  
     e(  2 -  2) =      2.38778  eV     1   --> A_1  D_1  S_1  
     e(  3 -  4) =      4.04991  eV     2   --> B_1  D_3  S_3  
     e(  3 -  4) =      4.04991  eV     2   --> B_2  D_4  S_4  
     e(  5 -  5) =      7.81532  eV     1   --> A_1  D_1  S_1  
     e(  6 -  6) =      8.95353  eV     1   --> A_1  D_1  S_1  
     e(  7 -  8) =     10.78101  eV     2   --> B_1  D_3  S_3  
     e(  7 -  8) =     10.78101  eV     2   --> B_2  D_4  S_4  
     e(  9 -  9) =     12.68490  eV     1   --> A_1  D_1  S_1  
     e( 10 - 10) =     15.75854  eV     1   --> A_1  D_1  S_1  
     e( 11 - 11) =     15.98996  eV     1   --> A_2  D_2  S_2  
     e( 12 - 12) =     18.24953  eV     1   -->   ?

 **************************************************************************

 **************************************************************************

                    xk=(   0.00000,   0.00000,   0.32500  )

     Band symmetry, C_2v (mm2)  point group:

     e(  1 -  1) =     -7.28529  eV     1   --> A_1  D_1  S_1  
     e(  2 -  2) =      2.61480  eV     1   --> A_1  D_1  S_1  
     e(  3 -  4) =      4.15985  eV     2   --> B_1  D_3  S_3  
     e(  3 -  4) =      4.15985  eV     2   --> B_2  D_4  S_4  
     e(  5 -  5) =      7.91956  eV     1   --> A_1  D_1  S_1  
     e(  6 -  6) =      8.86086  eV     1   --> A_1  D_1  S_1  
     e(  7 -  8) =     10.58731  eV     2   --> B_1  D_3  S_3  
     e(  7 -  8) =     10.58731  eV     2   --> B_2  D_4  S_4  
     e(  9 -  9) =     12.77816  eV     1   --> A_1  D_1  S_1  
     e( 10 - 10) =     15.51425  eV     1   --> A_1  D_1  S_1  
     e( 11 - 11) =     15.90992  eV     1   --> A_2  D_2  S_2  
     e( 12 - 12) =     18.09902  eV     1   -->   ?

 **************************************************************************

 **************************************************************************

                    xk=(   0.00000,   0.00000,   0.30000  )

     Band symmetry, C_2v (mm2)  point group:

     e(  1 -  1) =     -7.33862  eV     1   --> A_1  D_1  S_1  
     e(  2 -  2) =      2.84313  eV     1   --> A_1  D_1  S_1  
     e(  3 -  4) =      4.27010  eV     2   --> B_1  D_3  S_3  
     e(  3 -  4) =      4.27010  eV     2   --> B_2  D_4  S_4  
     e(  5 -  5) =      8.01863  eV     1   --> A_1  D_1  S_1  
     e(  6 -  6) =      8.74253  eV     1   --> A_1  D_1  S_1  
     e(  7 -  8) =     10.39908  eV     2   --> B_1  D_3  S_3  
     e(  7 -  8) =     10.39908  eV     2   --> B_2  D_4  S_4  
     e(  9 -  9) =     12.91167  eV     1   --> A_1  D_1  S_1  
     e( 10 - 10) =     15.27686  eV     1   --> A_1  D_1  S_1  
     e( 11 - 11) =     15.83577  eV     1   --> A_2  D_2  S_2  
     e( 12 - 12) =     17.95981  eV     1   -->   ?

 **************************************************************************

 **************************************************************************

                    xk=(   0.00000,   0.00000,   0.27500  )

     Band symmetry, C_2v (mm2)  point group:

     e(  1 -  1) =     -7.38789  eV     1   --> A_1  D_1  S_1  
     e(  2 -  2) =      3.07245  eV     1   --> A_1  D_1  S_1  
     e(  3 -  4) =      4.37985  eV     2   --> B_1  D_3  S_3  
     e(  3 -  4) =      4.37985  eV     2   --> B_2  D_4  S_4  
     e(  5 -  5) =      8.10118  eV     1   --> A_1  D_1  S_1  
     e(  6 -  6) =      8.61469  eV     1   --> A_1  D_1  S_1  
     e(  7 -  8) =     10.21722  eV     2   --> B_1  D_3  S_3  
     e(  7 -  8) =     10.21722  eV     2   --> B_2  D_4  S_4  
     e(  9 -  9) =     13.07916  eV     1   --> A_1  D_1  S_1  
     e( 10 - 10) =     15.04811  eV     1   --> A_1  D_1  S_1  
     e( 11 - 11) =     15.76752  eV     1   --> A_2  D_2  S_2  
     e( 12 - 12) =     17.83189  eV     1   -->   ?

 **************************************************************************

 **************************************************************************

                    xk=(   0.00000,   0.00000,   0.25000  )

     Band symmetry, C_2v (mm2)  point group:

     e(  1 -  1) =     -7.43305  eV     1   --> A_1  D_1  S_1  
     e(  2 -  2) =      3.30241  eV     1   --> A_1  D_1  S_1  
     e(  3 -  4) =      4.48816  eV     2   --> B_1  D_3  S_3  
     e(  3 -  4) =      4.48816  eV     2   --> B_2  D_4  S_4  
     e(  5 -  5) =      8.13103  eV     1   --> A_1  D_1  S_1  
     e(  6 -  6) =      8.51824  eV     1   --> A_1  D_1  S_1  
     e(  7 -  8) =     10.04274  eV     2   --> B_1  D_3  S_3  
     e(  7 -  8) =     10.04274  eV     2   --> B_2  D_4  S_4  
     e(  9 -  9) =     13.27389  eV     1   --> A_1  D_1  S_1  
     e( 10 - 10) =     14.83013  eV     1   --> A_1  D_1  S_1  
     e( 11 - 11) =     15.70518  eV     1   --> A_2  D_2  S_2  
     e( 12 - 12) =     17.71525  eV     1   -->   ?

 **************************************************************************

 **************************************************************************

                    xk=(   0.00000,   0.00000,   0.22500  )

     Band symmetry, C_2v (mm2)  point group:

     e(  1 -  1) =     -7.47404  eV     1   --> A_1  D_1  S_1  
     e(  2 -  2) =      3.53248  eV     1   --> A_1  D_1  S_1  
     e(  3 -  4) =      4.59391  eV     2   --> B_1  D_3  S_3  
     e(  3 -  4) =      4.59391  eV     2   --> B_2  D_4  S_4  
     e(  5 -  5) =      8.05089  eV     1   --> A_1  D_1  S_1  
     e(  6 -  6) =      8.51444  eV     1   --> A_1  D_1  S_1  
     e(  7 -  8) =      9.87684  eV     2   --> B_1  D_3  S_3  
     e(  7 -  8) =      9.87684  eV     2   --> B_2  D_4  S_4  
     e(  9 -  9) =     13.48861  eV     1   --> A_1  D_1  S_1  
     e( 10 - 10) =     14.62603  eV     1   --> A_1  D_1  S_1  
     e( 11 - 11) =     15.64876  eV     1   --> A_2  D_2  S_2  
     e( 12 - 12) =     17.60985  eV     1   -->   ?

 **************************************************************************

 **************************************************************************

                    xk=(   0.00000,   0.00000,   0.20000  )

     Band symmetry, C_2v (mm2)  point group:

     e(  1 -  1) =     -7.51082  eV     1   --> A_1  D_1  S_1  
     e(  2 -  2) =      3.76200  eV     1   --> A_1  D_1  S_1  
     e(  3 -  4) =      4.69583  eV     2   --> B_1  D_3  S_3  
     e(  3 -  4) =      4.69583  eV     2   --> B_2  D_4  S_4  
     e(  5 -  5) =      7.88839  eV     1   --> A_1  D_1  S_1  
     e(  6 -  6) =      8.57883  eV     1   --> A_1  D_1  S_1  
     e(  7 -  8) =      9.72088  eV     2   --> B_1  D_3  S_3  
     e(  7 -  8) =      9.72088  eV     2   --> B_2  D_4  S_4  
     e(  9 -  9) =     13.71319  eV     1   --> A_1  D_1  S_1  
     e( 10 - 10) =     14.44238  eV     1   --> A_1  D_1  S_1  
     e( 11 - 11) =     15.59825  eV     1   --> A_2  D_2  S_2  
     e( 12 - 12) =     17.51568  eV     1   -->   ?

 **************************************************************************

 **************************************************************************

                    xk=(   0.00000,   0.00000,   0.17500  )

     Band symmetry, C_2v (mm2)  point group:

     e(  1 -  1) =     -7.54335  eV     1   --> A_1  D_1  S_1  
     e(  2 -  2) =      3.98998  eV     1   --> A_1  D_1  S_1  
     e(  3 -  4) =      4.79241  eV     2   --> B_1  D_3  S_3  
     e(  3 -  4) =      4.79241  eV     2   --> B_2  D_4  S_4  
     e(  5 -  5) =      7.69407  eV     1   --> A_1  D_1  S_1  
     e(  6 -  6) =      8.66329  eV     1   --> A_1  D_1  S_1  
     e(  7 -  8) =      9.57642  eV     2   --> B_1  D_3  S_3  
     e(  7 -  8) =      9.57642  eV     2   --> B_2  D_4  S_4  
     e(  9 -  9) =     13.91781  eV     1   --> A_1  D_1  S_1  
     e( 10 - 10) =     14.30590  eV     1   --> A_1  D_1  S_1  
     e( 11 - 11) =     15.55368  eV     1   --> A_2  D_2  S_2  
     e( 12 - 12) =     17.43269  eV     1   -->   ?

 **************************************************************************

 **************************************************************************

                    xk=(   0.00000,   0.00000,   0.15000  )

     Band symmetry, C_2v (mm2)  point group:

     e(  1 -  1) =     -7.57161  eV     1   --> A_1  D_1  S_1  
     e(  2 -  2) =      4.21495  eV     1   --> A_1  D_1  S_1  
     e(  3 -  4) =      4.88197  eV     2   --> B_1  D_3  S_3  
     e(  3 -  4) =      4.88197  eV     2   --> B_2  D_4  S_4  
     e(  5 -  5) =      7.48794  eV     1   --> A_1  D_1  S_1  
     e(  6 -  6) =      8.74976  eV     1   --> A_1  D_1  S_1  
     e(  7 -  8) =      9.44521  eV     2   --> B_1  D_3  S_3  
     e(  7 -  8) =      9.44521  eV     2   --> B_2  D_4  S_4  
     e(  9 -  9) =     13.97054  eV     1   --> A_1  D_1  S_1  
     e( 10 - 10) =     14.34546  eV     1   --> A_1  D_1  S_1  
     e( 11 - 11) =     15.51504  eV     1   --> A_2  D_2  S_2  
     e( 12 - 12) =     17.36085  eV     1   -->   ?

 **************************************************************************

 **************************************************************************

                    xk=(   0.00000,   0.00000,   0.12500  )

     Band symmetry, C_2v (mm2)  point group:

     e(  1 -  1) =     -7.59556  eV     1   --> A_1  D_1  S_1  
     e(  2 -  2) =      4.43454  eV     1   --> A_1  D_1  S_1  
     e(  3 -  4) =      4.96266  eV     2   --> B_1  D_3  S_3  
     e(  3 -  4) =      4.96266  eV     2   --> B_2  D_4  S_4  
     e(  5 -  5) =      7.27921  eV     1   --> A_1  D_1  S_1  
     e(  6 -  6) =      8.83112  eV     1   --> A_1  D_1  S_1  
     e(  7 -  8) =      9.32918  eV     2   --> B_1  D_3  S_3  
     e(  7 -  8) =      9.32918  eV     2   --> B_2  D_4  S_4  
     e(  9 -  9) =     13.87306  eV     1   --> A_1  D_1  S_1  
     e( 10 - 10) =     14.55572  eV     1   --> A_1  D_1  S_1  
     e( 11 - 11) =     15.48234  eV     1   --> A_2  D_2  S_2  
     e( 12 - 12) =     17.30013  eV     1   -->   ?

 **************************************************************************

 **************************************************************************

                    xk=(   0.00000,   0.00000,   0.10000  )

     Band symmetry, C_2v (mm2)  point group:

     e(  1 -  1) =     -7.61518  eV     1   --> A_1  D_1  S_1  
     e(  2 -  2) =      4.64485  eV     1   --> A_1  D_1  S_1  
     e(  3 -  4) =      5.03250  eV     2   --> B_1  D_3  S_3  
     e(  3 -  4) =      5.03250  eV     2   --> B_2  D_4  S_4  
     e(  5 -  5) =      7.07507  eV     1   --> A_1  D_1  S_1  
     e(  6 -  6) =      8.90318  eV     1   --> A_1  D_1  S_1  
     e(  7 -  8) =      9.23034  eV     2   --> B_1  D_3  S_3  
     e(  7 -  8) =      9.23034  eV     2   --> B_2  D_4  S_4  
     e(  9 -  9) =     13.76302  eV     1   --> A_1  D_1  S_1  
     e( 10 - 10) =     14.79378  eV     1   --> A_1  D_1  S_1  
     e( 11 - 11) =     15.45558  eV     1   --> A_2  D_2  S_2  
     e( 12 - 12) =     17.25050  eV     1   -->   ?

 **************************************************************************

 **************************************************************************

                    xk=(   0.00000,   0.00000,   0.07500  )

     Band symmetry, C_2v (mm2)  point group:

     e(  1 -  1) =     -7.63046  eV     1   --> A_1  D_1  S_1  
     e(  2 -  2) =      4.83910  eV     1   --> A_1  D_1  S_1  
     e(  3 -  4) =      5.08950  eV     2   --> B_1  D_3  S_3  
     e(  3 -  4) =      5.08950  eV     2   --> B_2  D_4  S_4  
     e(  5 -  5) =      6.88419  eV     1   --> A_1  D_1  S_1  
     e(  6 -  6) =      8.96282  eV     1   --> A_1  D_1  S_1  
     e(  7 -  8) =      9.15075  eV     2   --> B_1  D_3  S_3  
     e(  7 -  8) =      9.15075  eV     2   --> B_2  D_4  S_4  
     e(  9 -  9) =     13.66933  eV     1   --> A_1  D_1  S_1  
     e( 10 - 10) =     15.02207  eV     1   --> A_1  D_1  S_1  
     e( 11 - 11) =     15.43477  eV     1   --> A_2  D_2  S_2  
     e( 12 - 12) =     17.21192  eV     1   -->   ?

 **************************************************************************

 **************************************************************************

                    xk=(   0.00000,   0.00000,   0.05000  )

     Band symmetry, C_2v (mm2)  point group:

     e(  1 -  1) =     -7.64138  eV     1   --> A_1  D_1  S_1  
     e(  2 -  2) =      5.00519  eV     1   --> A_1  D_1  S_1  
     e(  3 -  4) =      5.13179  eV     2   --> B_1  D_3  S_3  
     e(  3 -  4) =      5.13179  eV     2   --> B_2  D_4  S_4  
     e(  5 -  5) =      6.71981  eV     1   --> A_1  D_1  S_1  
     e(  6 -  6) =      9.00746  eV     1   --> A_1  D_1  S_1  
     e(  7 -  8) =      9.09229  eV     2   --> B_1  D_3  S_3  
     e(  7 -  8) =      9.09229  eV     2   --> B_2  D_4  S_4  
     e(  9 -  9) =     13.59924  eV     1   --> A_1  D_1  S_1  
     e( 10 - 10) =     15.21867  eV     1   --> A_1  D_1  S_1  
     e( 11 - 11) =     15.41990  eV     1   --> A_2  D_2  S_2  
     e( 12 - 12) =     17.18439  eV     1   -->   ?

 **************************************************************************

 **************************************************************************

                    xk=(   0.00000,   0.00000,   0.02500  )

     Band symmetry, C_2v (mm2)  point group:

     e(  1 -  1) =     -7.64794  eV     1   --> A_1  D_1  S_1  
     e(  2 -  2) =      5.12293  eV     1   --> A_1  D_1  S_1  
     e(  3 -  4) =      5.15785  eV     2   --> B_1  D_3  S_3  
     e(  3 -  4) =      5.15785  eV     2   --> B_2  D_4  S_4  
     e(  5 -  5) =      6.60285  eV     1   --> A_1  D_1  S_1  
     e(  6 -  6) =      9.03511  eV     1   --> A_1  D_1  S_1  
     e(  7 -  8) =      9.05652  eV     2   --> B_1  D_3  S_3  
     e(  7 -  8) =      9.05652  eV     2   --> B_2  D_4  S_4  
     e(  9 -  9) =     13.55602  eV     1   --> A_1  D_1  S_1  
     e( 10 - 10) =     15.35708  eV     1   --> A_1  D_1  S_1  
     e( 11 - 11) =     15.41097  eV     1   --> A_2  D_2  S_2  
     e( 12 - 12) =     17.16787  eV     1   -->   ?

 **************************************************************************

 **************************************************************************

                    xk=(   0.00000,   0.00000,   0.00000  )

     point group T_d (-43m) 
     there are  5 classes
     the character table:

       E     8C3   3C2   6S4   6s_d 
A_1    1.00  1.00  1.00  1.00  1.00
A_2    1.00  1.00  1.00 -1.00 -1.00
E      2.00 -1.00  2.00  0.00  0.00
T_1    3.00  0.00 -1.00  1.00 -1.00
T_2    3.00  0.00 -1.00 -1.00  1.00

     the symmetry operations in each class and the name of the first element:

     E        1
                                                                 
     8C3      5    7    8    6   12    9   10   11
                                                                 
     3C2      2    3    4
                                                                 
     6S4     15   16   20   19   23   24
                                                                 
     6s_d    13   14   17   18   21   22
                                                                 

     Band symmetry, T_d (-43m)  point group:

     e(  1 -  1) =     -7.65013  eV     1   --> A_1  G_1  P_1  
     e(  2 -  4) =      5.16666  eV     3   --> T_2  G_15 P_4  
     e(  5 -  5) =      6.55933  eV     1   --> A_1  G_1  P_1  
     e(  6 -  8) =      9.04448  eV     3   --> T_2  G_15 P_4  
     e(  9 -  9) =     13.54143  eV     1   --> A_1  G_1  P_1  
     e( 10 - 11) =     15.40800  eV     2   --> E    G_12 P_3  
     e( 12 - 12) =     17.16237  eV     1   -->   ?

 **************************************************************************

 **************************************************************************

                    xk=(  -0.01250,   0.01250,   0.01250  )

     point group C_3v (3m)  
     there are  3 classes
     the character table:

       E     2C3   3s_v 
A_1    1.00  1.00  1.00
A_2    1.00  1.00 -1.00
E      2.00 -1.00  0.00

     the symmetry operations in each class and the name of the first element:

     E        1
                                                                 
     2C3      2    3
                                                                 
     3s_v     4    5    6
                                                                 

     Band symmetry, C_3v (3m)   point group:

     e(  1 -  1) =     -7.64849  eV     1   --> A_1  L_1       
     e(  2 -  2) =      5.12613  eV     1   --> A_1  L_1       
     e(  3 -  4) =      5.16391  eV     2   --> E    L_3       
     e(  5 -  5) =      6.59193  eV     1   --> A_1  L_1       
     e(  6 -  6) =      9.04707  eV     1   --> A_1  L_1       
     e(  7 -  8) =      9.04873  eV     2   --> E    L_3       
     e(  9 -  9) =     13.55239  eV     1   --> A_1  L_1       
     e( 10 - 11) =     15.38976  eV     2   --> E    L_3       
     e( 12 - 12) =     17.15093  eV     1   --> A_1  L_1       

 **************************************************************************

 **************************************************************************

                    xk=(  -0.02500,   0.02500,   0.02500  )

     Band symmetry, C_3v (3m)   point group:

     e(  1 -  1) =     -7.64357  eV     1   --> A_1  L_1       
     e(  2 -  2) =      5.01504  eV     1   --> A_1  L_1       
     e(  3 -  4) =      5.15571  eV     2   --> E    L_3       
     e(  5 -  5) =      6.67877  eV     1   --> A_1  L_1       
     e(  6 -  6) =      9.05546  eV     1   --> A_1  L_1       
     e(  7 -  8) =      9.06139  eV     2   --> E    L_3       
     e(  9 -  9) =     13.58501  eV     1   --> A_1  L_1       
     e( 10 - 11) =     15.33816  eV     2   --> E    L_3       
     e( 12 - 12) =     17.11756  eV     1   --> A_1  L_1       

 **************************************************************************

 **************************************************************************

                    xk=(  -0.03750,   0.03750,   0.03750  )

     Band symmetry, C_3v (3m)   point group:

     e(  1 -  1) =     -7.63538  eV     1   --> A_1  L_1       
     e(  2 -  2) =      4.85455  eV     1   --> A_1  L_1       
     e(  3 -  4) =      5.14223  eV     2   --> E    L_3       
     e(  5 -  5) =      6.79739  eV     1   --> A_1  L_1       
     e(  6 -  6) =      9.07142  eV     1   --> A_1  L_1       
     e(  7 -  8) =      9.08222  eV     2   --> E    L_3       
     e(  9 -  9) =     13.63854  eV     1   --> A_1  L_1       
     e( 10 - 11) =     15.26073  eV     2   --> E    L_3       
     e( 12 - 12) =     17.06486  eV     1   --> A_1  L_1       

 **************************************************************************

 **************************************************************************

                    xk=(  -0.05000,   0.05000,   0.05000  )

     Band symmetry, C_3v (3m)   point group:

     e(  1 -  1) =     -7.62393  eV     1   --> A_1  L_1       
     e(  2 -  2) =      4.66278  eV     1   --> A_1  L_1       
     e(  3 -  4) =      5.12372  eV     2   --> E    L_3       
     e(  5 -  5) =      6.92757  eV     1   --> A_1  L_1       
     e(  6 -  6) =      9.09779  eV     1   --> A_1  L_1       
     e(  7 -  8) =      9.11079  eV     2   --> E    L_3       
     e(  9 -  9) =     13.71173  eV     1   --> A_1  L_1       
     e( 10 - 11) =     15.16605  eV     2   --> E    L_3       
     e( 12 - 12) =     16.99660  eV     1   --> A_1  L_1       

 **************************************************************************

 **************************************************************************

                    xk=(  -0.06250,   0.06250,   0.06250  )

     Band symmetry, C_3v (3m)   point group:

     e(  1 -  1) =     -7.60923  eV     1   --> A_1  L_1       
     e(  2 -  2) =      4.45153  eV     1   --> A_1  L_1       
     e(  3 -  4) =      5.10053  eV     2   --> E    L_3       
     e(  5 -  5) =      7.05483  eV     1   --> A_1  L_1       
     e(  6 -  6) =      9.13819  eV     1   --> A_1  L_1       
     e(  7 -  8) =      9.14654  eV     2   --> E    L_3       
     e(  9 -  9) =     13.80284  eV     1   --> A_1  L_1       
     e( 10 - 11) =     15.06156  eV     2   --> E    L_3       
     e( 12 - 12) =     16.91716  eV     1   --> A_1  L_1       

 **************************************************************************

 **************************************************************************

                    xk=(  -0.07500,   0.07500,   0.07500  )

     Band symmetry, C_3v (3m)   point group:

     e(  1 -  1) =     -7.59129  eV     1   --> A_1  L_1       
     e(  2 -  2) =      4.22799  eV     1   --> A_1  L_1       
     e(  3 -  4) =      5.07305  eV     2   --> E    L_3       
     e(  5 -  5) =      7.16923  eV     1   --> A_1  L_1       
     e(  6 -  7) =      9.18877  eV     2   --> E    L_3       
     e(  8 -  8) =      9.19647  eV     1   --> A_1  L_1       
     e(  9 -  9) =     13.90963  eV     1   --> A_1  L_1       
     e( 10 - 11) =     14.95298  eV     2   --> E    L_3       
     e( 12 - 12) =     16.83113  eV     1   --> A_1  L_1       

 **************************************************************************

 **************************************************************************

                    xk=(  -0.08750,   0.08750,   0.08750  )

     Band symmetry, C_3v (3m)   point group:

     e(  1 -  1) =     -7.57015  eV     1   --> A_1  L_1       
     e(  2 -  2) =      3.99660  eV     1   --> A_1  L_1       
     e(  3 -  4) =      5.04173  eV     2   --> E    L_3       
     e(  5 -  5) =      7.26423  eV     1   --> A_1  L_1       
     e(  6 -  7) =      9.23669  eV     2   --> E    L_3       
     e(  8 -  8) =      9.27591  eV     1   --> A_1  L_1       
     e(  9 -  9) =     14.02927  eV     1   --> A_1  L_1       
     e( 10 - 11) =     14.84451  eV     2   --> E    L_3       
     e( 12 - 12) =     16.74322  eV     1   --> A_1  L_1       

 **************************************************************************

 **************************************************************************

                    xk=(  -0.10000,   0.10000,   0.10000  )

     Band symmetry, C_3v (3m)   point group:

     e(  1 -  1) =     -7.54583  eV     1   --> A_1  L_1       
     e(  2 -  2) =      3.76023  eV     1   --> A_1  L_1       
     e(  3 -  4) =      5.00705  eV     2   --> E    L_3       
     e(  5 -  5) =      7.33628  eV     1   --> A_1  L_1       
     e(  6 -  7) =      9.28937  eV     2   --> E    L_3       
     e(  8 -  8) =      9.37834  eV     1   --> A_1  L_1       
     e(  9 -  9) =     14.15817  eV     1   --> A_1  L_1       
     e( 10 - 11) =     14.73926  eV     2   --> E    L_3       
     e( 12 - 12) =     16.65831  eV     1   --> A_1  L_1       

 **************************************************************************

 **************************************************************************

                    xk=(  -0.11250,   0.11250,   0.11250  )

     Band symmetry, C_3v (3m)   point group:

     e(  1 -  1) =     -7.51836  eV     1   --> A_1  L_1       
     e(  2 -  2) =      3.52088  eV     1   --> A_1  L_1       
     e(  3 -  4) =      4.96950  eV     2   --> E    L_3       
     e(  5 -  5) =      7.38472  eV     1   --> A_1  L_1       
     e(  6 -  7) =      9.34582  eV     2   --> E    L_3       
     e(  8 -  8) =      9.50364  eV     1   --> A_1  L_1       
     e(  9 -  9) =     14.29179  eV     1   --> A_1  L_1       
     e( 10 - 11) =     14.63963  eV     2   --> E    L_3       
     e( 12 - 12) =     16.58179  eV     1   --> A_1  L_1       

 **************************************************************************

 **************************************************************************

                    xk=(  -0.12500,   0.12500,   0.12500  )

     Band symmetry, C_3v (3m)   point group:

     e(  1 -  1) =     -7.48777  eV     1   --> A_1  L_1       
     e(  2 -  2) =      3.27996  eV     1   --> A_1  L_1       
     e(  3 -  4) =      4.92956  eV     2   --> E    L_3       
     e(  5 -  5) =      7.41115  eV     1   --> A_1  L_1       
     e(  6 -  7) =      9.40501  eV     2   --> E    L_3       
     e(  8 -  8) =      9.64990  eV     1   --> A_1  L_1       
     e(  9 -  9) =     14.42429  eV     1   --> A_1  L_1       
     e( 10 - 11) =     14.54753  eV     2   --> E    L_3       
     e( 12 - 12) =     16.51989  eV     1   --> A_1  L_1       

 **************************************************************************

 **************************************************************************

                    xk=(  -0.13750,   0.13750,   0.13750  )

     Band symmetry, C_3v (3m)   point group:

     e(  1 -  1) =     -7.45413  eV     1   --> A_1  L_1       
     e(  2 -  2) =      3.03857  eV     1   --> A_1  L_1       
     e(  3 -  4) =      4.88769  eV     2   --> E    L_3       
     e(  5 -  5) =      7.41857  eV     1   --> A_1  L_1       
     e(  6 -  7) =      9.46581  eV     2   --> E    L_3       
     e(  8 -  8) =      9.81407  eV     1   --> A_1  L_1       
     e(  9 - 10) =     14.46456  eV     2   --> E    L_3       
     e( 11 - 11) =     14.54832  eV     1   --> A_1  L_1       
     e( 12 - 12) =     16.48004  eV     1   --> A_1  L_1       

 **************************************************************************

 **************************************************************************

                    xk=(  -0.15000,   0.15000,   0.15000  )

     Band symmetry, C_3v (3m)   point group:

     e(  1 -  1) =     -7.41747  eV     1   --> A_1  L_1       
     e(  2 -  2) =      2.79757  eV     1   --> A_1  L_1       
     e(  3 -  4) =      4.84435  eV     2   --> E    L_3       
     e(  5 -  5) =      7.41050  eV     1   --> A_1  L_1       
     e(  6 -  7) =      9.52710  eV     2   --> E    L_3       
     e(  8 -  8) =      9.99274  eV     1   --> A_1  L_1       
     e(  9 - 10) =     14.39215  eV     2   --> E    L_3       
     e( 11 - 11) =     14.65530  eV     1   --> A_1  L_1       
     e( 12 - 12) =     16.47064  eV     1   --> A_1  L_1       

 **************************************************************************

 **************************************************************************

                    xk=(  -0.16250,   0.16250,   0.16250  )

     Band symmetry, C_3v (3m)   point group:

     e(  1 -  1) =     -7.37786  eV     1   --> A_1  L_1       
     e(  2 -  2) =      2.55767  eV     1   --> A_1  L_1       
     e(  3 -  4) =      4.79995  eV     2   --> E    L_3       
     e(  5 -  5) =      7.39031  eV     1   --> A_1  L_1       
     e(  6 -  7) =      9.58773  eV     2   --> E    L_3       
     e(  8 -  8) =     10.18266  eV     1   --> A_1  L_1       
     e(  9 - 10) =     14.33154  eV     2   --> E    L_3       
     e( 11 - 11) =     14.73685  eV     1   --> A_1  L_1       
     e( 12 - 12) =     16.49970  eV     1   --> A_1  L_1       

 **************************************************************************

 **************************************************************************

                    xk=(  -0.17500,   0.17500,   0.17500  )

     Band symmetry, C_3v (3m)   point group:

     e(  1 -  1) =     -7.33537  eV     1   --> A_1  L_1       
     e(  2 -  2) =      2.31948  eV     1   --> A_1  L_1       
     e(  3 -  4) =      4.75488  eV     2   --> E    L_3       
     e(  5 -  5) =      7.36096  eV     1   --> A_1  L_1       
     e(  6 -  7) =      9.64657  eV     2   --> E    L_3       
     e(  8 -  8) =     10.38103  eV     1   --> A_1  L_1       
     e(  9 - 10) =     14.28390  eV     2   --> E    L_3       
     e( 11 - 11) =     14.78739  eV     1   --> A_1  L_1       
     e( 12 - 12) =     16.57226  eV     1   --> A_1  L_1       

 **************************************************************************

 **************************************************************************

                    xk=(  -0.18750,   0.18750,   0.18750  )

     Band symmetry, C_3v (3m)   point group:

     e(  1 -  1) =     -7.29008  eV     1   --> A_1  L_1       
     e(  2 -  2) =      2.08354  eV     1   --> A_1  L_1       
     e(  3 -  4) =      4.70950  eV     2   --> E    L_3       
     e(  5 -  5) =      7.32490  eV     1   --> A_1  L_1       
     e(  6 -  7) =      9.70255  eV     2   --> E    L_3       
     e(  8 -  8) =     10.58549  eV     1   --> A_1  L_1       
     e(  9 - 10) =     14.25027  eV     2   --> E    L_3       
     e( 11 - 11) =     14.80643  eV     1   --> A_1  L_1       
     e( 12 - 12) =     16.68810  eV     1   --> A_1  L_1       

 **************************************************************************

 **************************************************************************

                    xk=(  -0.20000,   0.20000,   0.20000  )

     Band symmetry, C_3v (3m)   point group:

     e(  1 -  1) =     -7.24210  eV     1   --> A_1  L_1       
     e(  2 -  2) =      1.85033  eV     1   --> A_1  L_1       
     e(  3 -  4) =      4.66414  eV     2   --> E    L_3       
     e(  5 -  5) =      7.28409  eV     1   --> A_1  L_1       
     e(  6 -  7) =      9.75467  eV     2   --> E    L_3       
     e(  8 -  8) =     10.79409  eV     1   --> A_1  L_1       
     e(  9 - 10) =     14.23156  eV     2   --> E    L_3       
     e( 11 - 11) =     14.79844  eV     1   --> A_1  L_1       
     e( 12 - 12) =     16.84200  eV     1   --> A_1  L_1       

 **************************************************************************

 **************************************************************************

                    xk=(  -0.21250,   0.21250,   0.21250  )

     Band symmetry, C_3v (3m)   point group:

     e(  1 -  1) =     -7.19152  eV     1   --> A_1  L_1       
     e(  2 -  2) =      1.62029  eV     1   --> A_1  L_1       
     e(  3 -  4) =      4.61909  eV     2   --> E    L_3       
     e(  5 -  5) =      7.24007  eV     1   --> A_1  L_1       
     e(  6 -  7) =      9.80207  eV     2   --> E    L_3       
     e(  8 -  8) =     11.00521  eV     1   --> A_1  L_1       
     e(  9 - 10) =     14.22854  eV     2   --> E    L_3       
     e( 11 - 11) =     14.77034  eV     1   --> A_1  L_1       
     e( 12 - 12) =     17.02608  eV     1   --> A_1  L_1       

 **************************************************************************

 **************************************************************************

                    xk=(  -0.22500,   0.22500,   0.22500  )

     Band symmetry, C_3v (3m)   point group:

     e(  1 -  1) =     -7.13847  eV     1   --> A_1  L_1       
     e(  2 -  2) =      1.39384  eV     1   --> A_1  L_1       
     e(  3 -  4) =      4.57462  eV     2   --> E    L_3       
     e(  5 -  5) =      7.19407  eV     1   --> A_1  L_1       
     e(  6 -  7) =      9.84402  eV     2   --> E    L_3       
     e(  8 -  8) =     11.21736  eV     1   --> A_1  L_1       
     e(  9 - 10) =     14.24181  eV     2   --> E    L_3       
     e( 11 - 11) =     14.72921  eV     1   --> A_1  L_1       
     e( 12 - 12) =     17.23223  eV     1   --> A_1  L_1       

 **************************************************************************

 **************************************************************************

                    xk=(  -0.23750,   0.23750,   0.23750  )

     Band symmetry, C_3v (3m)   point group:

     e(  1 -  1) =     -7.08310  eV     1   --> A_1  L_1       
     e(  2 -  2) =      1.17139  eV     1   --> A_1  L_1       
     e(  3 -  4) =      4.53096  eV     2   --> E    L_3       
     e(  5 -  5) =      7.14707  eV     1   --> A_1  L_1       
     e(  6 -  7) =      9.88004  eV     2   --> E    L_3       
     e(  8 -  8) =     11.42913  eV     1   --> A_1  L_1       
     e(  9 - 10) =     14.27176  eV     2   --> E    L_3       
     e( 11 - 11) =     14.68112  eV     1   --> A_1  L_1       
     e( 12 - 12) =     17.45322  eV     1   --> A_1  L_1       

 **************************************************************************

 **************************************************************************

                    xk=(  -0.25000,   0.25000,   0.25000  )

     Band symmetry, C_3v (3m)   point group:

     e(  1 -  1) =     -7.02557  eV     1   --> A_1  L_1       
     e(  2 -  2) =      0.95334  eV     1   --> A_1  L_1       
     e(  3 -  4) =      4.48832  eV     2   --> E    L_3       
     e(  5 -  5) =      7.09981  eV     1   --> A_1  L_1       
     e(  6 -  7) =      9.90982  eV     2   --> E    L_3       
     e(  8 -  8) =     11.63906  eV     1   --> A_1  L_1       
     e(  9 - 10) =     14.31854  eV     2   --> E    L_3       
     e( 11 - 11) =     14.63102  eV     1   --> A_1  L_1       
     e( 12 - 12) =     17.68275  eV     1   --> A_1  L_1       

 **************************************************************************

 **************************************************************************

                    xk=(  -0.26250,   0.26250,   0.26250  )

     Band symmetry, C_3v (3m)   point group:

     e(  1 -  1) =     -6.96608  eV     1   --> A_1  L_1       
     e(  2 -  2) =      0.74009  eV     1   --> A_1  L_1       
     e(  3 -  4) =      4.44691  eV     2   --> E    L_3       
     e(  5 -  5) =      7.05292  eV     1   --> A_1  L_1       
     e(  6 -  7) =      9.93331  eV     2   --> E    L_3       
     e(  8 -  8) =     11.84547  eV     1   --> A_1  L_1       
     e(  9 - 10) =     14.38210  eV     2   --> E    L_3       
     e( 11 - 11) =     14.58303  eV     1   --> A_1  L_1       
     e( 12 - 12) =     17.91523  eV     1   --> A_1  L_1       

 **************************************************************************

 **************************************************************************

                    xk=(  -0.27500,   0.27500,   0.27500  )

     Band symmetry, C_3v (3m)   point group:

     e(  1 -  1) =     -6.90485  eV     1   --> A_1  L_1       
     e(  2 -  2) =      0.53204  eV     1   --> A_1  L_1       
     e(  3 -  4) =      4.40687  eV     2   --> E    L_3       
     e(  5 -  5) =      7.00689  eV     1   --> A_1  L_1       
     e(  6 -  7) =      9.95066  eV     2   --> E    L_3       
     e(  8 -  8) =     12.04636  eV     1   --> A_1  L_1       
     e(  9 - 10) =     14.46217  eV     2   --> E    L_3       
     e( 11 - 11) =     14.54088  eV     1   --> A_1  L_1       
     e( 12 - 12) =     18.14529  eV     1   --> A_1  L_1       

 **************************************************************************

 **************************************************************************

                    xk=(  -0.28750,   0.28750,   0.28750  )

     Band symmetry, C_3v (3m)   point group:

     e(  1 -  1) =     -6.84212  eV     1   --> A_1  L_1       
     e(  2 -  2) =      0.32962  eV     1   --> A_1  L_1       
     e(  3 -  4) =      4.36837  eV     2   --> E    L_3       
     e(  5 -  5) =      6.96210  eV     1   --> A_1  L_1       
     e(  6 -  7) =      9.96221  eV     2   --> E    L_3       
     e(  8 -  8) =     12.23922  eV     1   --> A_1  L_1       
     e(  9 -  9) =     14.50823  eV     1   --> A_1  L_1       
     e( 10 - 11) =     14.55826  eV     2   --> E    L_3       
     e( 12 - 12) =     18.36747  eV     1   --> A_1  L_1       

 **************************************************************************

 **************************************************************************

                    xk=(  -0.30000,   0.30000,   0.30000  )

     Band symmetry, C_3v (3m)   point group:

     e(  1 -  1) =     -6.77819  eV     1   --> A_1  L_1       
     e(  2 -  2) =      0.13327  eV     1   --> A_1  L_1       
     e(  3 -  4) =      4.33153  eV     2   --> E    L_3       
     e(  5 -  5) =      6.91888  eV     1   --> A_1  L_1       
     e(  6 -  7) =      9.96846  eV     2   --> E    L_3       
     e(  8 -  8) =     12.42091  eV     1   --> A_1  L_1       
     e(  9 -  9) =     14.48900  eV     1   --> A_1  L_1       
     e( 10 - 11) =     14.66974  eV     2   --> E    L_3       
     e( 12 - 12) =     18.57594  eV     1   --> A_1  L_1       

 **************************************************************************

 **************************************************************************

                    xk=(  -0.31250,   0.31250,   0.31250  )

     Band symmetry, C_3v (3m)   point group:

     e(  1 -  1) =     -6.71338  eV     1   --> A_1  L_1       
     e(  2 -  2) =     -0.05654  eV     1   --> A_1  L_1       
     e(  3 -  4) =      4.29647  eV     2   --> E    L_3       
     e(  5 -  5) =      6.87749  eV     1   --> A_1  L_1       
     e(  6 -  7) =      9.97002  eV     2   --> E    L_3       
     e(  8 -  8) =     12.58761  eV     1   --> A_1  L_1       
     e(  9 -  9) =     14.48747  eV     1   --> A_1  L_1       
     e( 10 - 11) =     14.79588  eV     2   --> E    L_3       
     e( 12 - 12) =     18.76442  eV     1   --> A_1  L_1       

 **************************************************************************

 **************************************************************************

                    xk=(  -0.32500,   0.32500,   0.32500  )

     Band symmetry, C_3v (3m)   point group:

     e(  1 -  1) =     -6.64808  eV     1   --> A_1  L_1       
     e(  2 -  2) =     -0.23931  eV     1   --> A_1  L_1       
     e(  3 -  4) =      4.26329  eV     2   --> E    L_3       
     e(  5 -  5) =      6.83814  eV     1   --> A_1  L_1       
     e(  6 -  7) =      9.96758  eV     2   --> E    L_3       
     e(  8 -  8) =     12.73509  eV     1   --> A_1  L_1       
     e(  9 -  9) =     14.50814  eV     1   --> A_1  L_1       
     e( 10 - 11) =     14.93583  eV     2   --> E    L_3       
     e( 12 - 12) =     18.92630  eV     1   --> A_1  L_1       

 **************************************************************************

 **************************************************************************

                    xk=(  -0.33750,   0.33750,   0.33750  )

     Band symmetry, C_3v (3m)   point group:

     e(  1 -  1) =     -6.58272  eV     1   --> A_1  L_1       
     e(  2 -  2) =     -0.41449  eV     1   --> A_1  L_1       
     e(  3 -  4) =      4.23209  eV     2   --> E    L_3       
     e(  5 -  5) =      6.80100  eV     1   --> A_1  L_1       
     e(  6 -  7) =      9.96186  eV     2   --> E    L_3       
     e(  8 -  8) =     12.85939  eV     1   --> A_1  L_1       
     e(  9 -  9) =     14.55499  eV     1   --> A_1  L_1       
     e( 10 - 11) =     15.08873  eV     2   --> E    L_3       
     e( 12 - 12) =     19.05517  eV     1   --> A_1  L_1       

 **************************************************************************

 **************************************************************************

                    xk=(  -0.35000,   0.35000,   0.35000  )

     Band symmetry, C_3v (3m)   point group:

     e(  1 -  1) =     -6.51778  eV     1   --> A_1  L_1       
     e(  2 -  2) =     -0.58149  eV     1   --> A_1  L_1       
     e(  3 -  4) =      4.20293  eV     2   --> E    L_3       
     e(  5 -  5) =      6.76622  eV     1   --> A_1  L_1       
     e(  6 -  7) =      9.95357  eV     2   --> E    L_3       
     e(  8 -  8) =     12.95806  eV     1   --> A_1  L_1       
     e(  9 -  9) =     14.63033  eV     1   --> A_1  L_1       
     e( 10 - 11) =     15.25368  eV     2   --> E    L_3       
     e( 12 - 12) =     19.14567  eV     1   --> A_1  L_1       

 **************************************************************************

 **************************************************************************

                    xk=(  -0.36250,   0.36250,   0.36250  )

     Band symmetry, C_3v (3m)   point group:

     e(  1 -  1) =     -6.45382  eV     1   --> A_1  L_1       
     e(  2 -  2) =     -0.73966  eV     1   --> A_1  L_1       
     e(  3 -  4) =      4.17589  eV     2   --> E    L_3       
     e(  5 -  5) =      6.73390  eV     1   --> A_1  L_1       
     e(  6 -  7) =      9.94340  eV     2   --> E    L_3       
     e(  8 -  8) =     13.03114  eV     1   --> A_1  L_1       
     e(  9 -  9) =     14.73377  eV     1   --> A_1  L_1       
     e( 10 - 11) =     15.42977  eV     2   --> E    L_3       
     e( 12 - 12) =     19.19460  eV     1   --> A_1  L_1       

 **************************************************************************

 **************************************************************************

                    xk=(  -0.37500,   0.37500,   0.37500  )

     Band symmetry, C_3v (3m)   point group:

     e(  1 -  1) =     -6.39146  eV     1   --> A_1  L_1       
     e(  2 -  2) =     -0.88830  eV     1   --> A_1  L_1       
     e(  3 -  4) =      4.15104  eV     2   --> E    L_3       
     e(  5 -  5) =      6.70415  eV     1   --> A_1  L_1       
     e(  6 -  7) =      9.93200  eV     2   --> E    L_3       
     e(  8 -  8) =     13.08129  eV     1   --> A_1  L_1       
     e(  9 -  9) =     14.86208  eV     1   --> A_1  L_1       
     e( 10 - 11) =     15.61611  eV     2   --> E    L_3       
     e( 12 - 12) =     19.20171  eV     1   --> A_1  L_1       

 **************************************************************************

 **************************************************************************

                    xk=(  -0.38750,   0.38750,   0.38750  )

     Band symmetry, C_3v (3m)   point group:

     e(  1 -  1) =     -6.33138  eV     1   --> A_1  L_1       
     e(  2 -  2) =     -1.02666  eV     1   --> A_1  L_1       
     e(  3 -  4) =      4.12841  eV     2   --> E    L_3       
     e(  5 -  5) =      6.67706  eV     1   --> A_1  L_1       
     e(  6 -  7) =      9.91996  eV     2   --> E    L_3       
     e(  8 -  8) =     13.11285  eV     1   --> A_1  L_1       
     e(  9 -  9) =     15.01005  eV     1   --> A_1  L_1       
     e( 10 - 11) =     15.81177  eV     2   --> E    L_3       
     e( 12 - 12) =     19.16989  eV     1   --> A_1  L_1       

 **************************************************************************

 **************************************************************************

                    xk=(  -0.40000,   0.40000,   0.40000  )

     Band symmetry, C_3v (3m)   point group:

     e(  1 -  1) =     -6.27434  eV     1   --> A_1  L_1       
     e(  2 -  2) =     -1.15391  eV     1   --> A_1  L_1       
     e(  3 -  4) =      4.10805  eV     2   --> E    L_3       
     e(  5 -  5) =      6.65267  eV     1   --> A_1  L_1       
     e(  6 -  7) =      9.90782  eV     2   --> E    L_3       
     e(  8 -  8) =     13.13056  eV     1   --> A_1  L_1       
     e(  9 -  9) =     15.17171  eV     1   --> A_1  L_1       
     e( 10 - 11) =     16.01579  eV     2   --> E    L_3       
     e( 12 - 12) =     19.10460  eV     1   --> A_1  L_1       

 **************************************************************************

 **************************************************************************

                    xk=(  -0.41250,   0.41250,   0.41250  )

     Band symmetry, C_3v (3m)   point group:

     e(  1 -  1) =     -6.22113  eV     1   --> A_1  L_1       
     e(  2 -  2) =     -1.26920  eV     1   --> A_1  L_1       
     e(  3 -  4) =      4.09001  eV     2   --> E    L_3       
     e(  5 -  5) =      6.63105  eV     1   --> A_1  L_1       
     e(  6 -  7) =      9.89605  eV     2   --> E    L_3       
     e(  8 -  8) =     13.13865  eV     1   --> A_1  L_1       
     e(  9 -  9) =     15.34107  eV     1   --> A_1  L_1       
     e( 10 - 11) =     16.22708  eV     2   --> E    L_3       
     e( 12 - 12) =     19.01296  eV     1   --> A_1  L_1       

 **************************************************************************

 **************************************************************************

                    xk=(  -0.42500,   0.42500,   0.42500  )

     Band symmetry, C_3v (3m)   point group:

     e(  1 -  1) =     -6.17260  eV     1   --> A_1  L_1       
     e(  2 -  2) =     -1.37163  eV     1   --> A_1  L_1       
     e(  3 -  4) =      4.07432  eV     2   --> E    L_3       
     e(  5 -  5) =      6.61223  eV     1   --> A_1  L_1       
     e(  6 -  7) =      9.88506  eV     2   --> E    L_3       
     e(  8 -  8) =     13.14055  eV     1   --> A_1  L_1       
     e(  9 -  9) =     15.51226  eV     1   --> A_1  L_1       
     e( 10 - 11) =     16.44431  eV     2   --> E    L_3       
     e( 12 - 12) =     18.90294  eV     1   --> A_1  L_1       

 **************************************************************************

 **************************************************************************

                    xk=(  -0.43750,   0.43750,   0.43750  )

     Band symmetry, C_3v (3m)   point group:

     e(  1 -  1) =     -6.12962  eV     1   --> A_1  L_1       
     e(  2 -  2) =     -1.46029  eV     1   --> A_1  L_1       
     e(  3 -  4) =      4.06099  eV     2   --> E    L_3       
     e(  5 -  5) =      6.59626  eV     1   --> A_1  L_1       
     e(  6 -  7) =      9.87520  eV     2   --> E    L_3       
     e(  8 -  8) =     13.13884  eV     1   --> A_1  L_1       
     e(  9 -  9) =     15.67925  eV     1   --> A_1  L_1       
     e( 10 - 11) =     16.66562  eV     2   --> E    L_3       
     e( 12 - 12) =     18.78300  eV     1   --> A_1  L_1       

 **************************************************************************

 **************************************************************************

                    xk=(  -0.45000,   0.45000,   0.45000  )

     Band symmetry, C_3v (3m)   point group:

     e(  1 -  1) =     -6.09303  eV     1   --> A_1  L_1       
     e(  2 -  2) =     -1.53431  eV     1   --> A_1  L_1       
     e(  3 -  4) =      4.05006  eV     2   --> E    L_3       
     e(  5 -  5) =      6.58316  eV     1   --> A_1  L_1       
     e(  6 -  7) =      9.86674  eV     2   --> E    L_3       
     e(  8 -  8) =     13.13540  eV     1   --> A_1  L_1       
     e(  9 -  9) =     15.83537  eV     1   --> A_1  L_1       
     e( 10 - 11) =     16.88809  eV     2   --> E    L_3       
     e( 12 - 12) =     18.66216  eV     1   --> A_1  L_1       

 **************************************************************************

 **************************************************************************

                    xk=(  -0.46250,   0.46250,   0.46250  )

     Band symmetry, C_3v (3m)   point group:

     e(  1 -  1) =     -6.06362  eV     1   --> A_1  L_1       
     e(  2 -  2) =     -1.59286  eV     1   --> A_1  L_1       
     e(  3 -  4) =      4.04154  eV     2   --> E    L_3       
     e(  5 -  5) =      6.57294  eV     1   --> A_1  L_1       
     e(  6 -  7) =      9.85994  eV     2   --> E    L_3       
     e(  8 -  8) =     13.13155  eV     1   --> A_1  L_1       
     e(  9 -  9) =     15.97271  eV     1   --> A_1  L_1       
     e( 10 - 11) =     17.10627  eV     2   --> E    L_3       
     e( 12 - 12) =     18.55025  eV     1   --> A_1  L_1       

 **************************************************************************

 **************************************************************************

                    xk=(  -0.47500,   0.47500,   0.47500  )

     Band symmetry, C_3v (3m)   point group:

     e(  1 -  1) =     -6.04207  eV     1   --> A_1  L_1       
     e(  2 -  2) =     -1.63523  eV     1   --> A_1  L_1       
     e(  3 -  4) =      4.03545  eV     2   --> E    L_3       
     e(  5 -  5) =      6.56564  eV     1   --> A_1  L_1       
     e(  6 -  7) =      9.85495  eV     2   --> E    L_3       
     e(  8 -  8) =     13.12822  eV     1   --> A_1  L_1       
     e(  9 -  9) =     16.08198  eV     1   --> A_1  L_1       
     e( 10 - 11) =     17.30864  eV     2   --> E    L_3       
     e( 12 - 12) =     18.45809  eV     1   --> A_1  L_1       

 **************************************************************************

 **************************************************************************

                    xk=(  -0.48750,   0.48750,   0.48750  )

     Band symmetry, C_3v (3m)   point group:

     e(  1 -  1) =     -6.02892  eV     1   --> A_1  L_1       
     e(  2 -  2) =     -1.66089  eV     1   --> A_1  L_1       
     e(  3 -  4) =      4.03179  eV     2   --> E    L_3       
     e(  5 -  5) =      6.56125  eV     1   --> A_1  L_1       
     e(  6 -  7) =      9.85191  eV     2   --> E    L_3       
     e(  8 -  8) =     13.12600  eV     1   --> A_1  L_1       
     e(  9 -  9) =     16.15319  eV     1   --> A_1  L_1       
     e( 10 - 11) =     17.46863  eV     2   --> E    L_3       
     e( 12 - 12) =     18.39673  eV     1   --> A_1  L_1       

 **************************************************************************

 **************************************************************************

                    xk=(  -0.50000,   0.50000,   0.50000  )

     Band symmetry, C_3v (3m)   point group:

     e(  1 -  1) =     -6.02449  eV     1   --> A_1  L_1       
     e(  2 -  2) =     -1.66949  eV     1   --> A_1  L_1       
     e(  3 -  4) =      4.03057  eV     2   --> E    L_3       
     e(  5 -  5) =      6.55978  eV     1   --> A_1  L_1       
     e(  6 -  7) =      9.85089  eV     2   --> E    L_3       
     e(  8 -  8) =     13.12522  eV     1   --> A_1  L_1       
     e(  9 -  9) =     16.17803  eV     1   --> A_1  L_1       
     e( 10 - 11) =     17.53441  eV     2   --> E    L_3       
     e( 12 - 12) =     18.37510  eV     1   --> A_1  L_1       

 **************************************************************************

 **************************************************************************

                    xk=(  -0.50000,   0.48750,   0.51250  )

     point group C_1 (1)    
     there are  1 classes
     the character table:

       E    
A      1.00

     the symmetry operations in each class and the name of the first element:

     E        1
                                                                 

     Band symmetry, C_1 (1)     point group:

     e(  1 -  1) =     -6.02359  eV     1   --> A              
[...]
     e(  5 -  5) =      8.34256  eV     1   --> A'             
     e(  6 -  6) =      9.88544  eV     1   --> A'             
     e(  7 -  7) =      9.94928  eV     1   --> A''            
     e(  8 -  8) =     11.09091  eV     1   --> A'             
     e(  9 -  9) =     13.19984  eV     1   --> A''            
     e( 10 - 10) =     15.40121  eV     1   --> A'             
     e( 11 - 11) =     16.55652  eV     1   --> A'             
     e( 12 - 12) =     18.10902  eV     1   --> A'             

 **************************************************************************

 **************************************************************************

                    xk=(  -0.31875,   0.00000,   0.31875  )

     Band symmetry, C_s (m)     point group:

     e(  1 -  1) =     -6.97010  eV     1   --> A'             
     e(  2 -  2) =      1.18093  eV     1   --> A'             
     e(  3 -  3) =      3.11552  eV     1   --> A'             
     e(  4 -  4) =      4.70199  eV     1   --> A''            
     e(  5 -  5) =      8.30283  eV     1   --> A'             
     e(  6 -  6) =      9.77213  eV     1   --> A'             
     e(  7 -  7) =      9.85102  eV     1   --> A''            
     e(  8 -  8) =     11.08445  eV     1   --> A'             
     e(  9 -  9) =     13.22745  eV     1   --> A''            
     e( 10 - 10) =     15.18248  eV     1   --> A'             
     e( 11 - 11) =     16.36868  eV     1   --> A'             
     e( 12 - 12) =     17.97904  eV     1   --> A'             

 **************************************************************************

 **************************************************************************

                    xk=(  -0.30000,   0.00000,   0.30000  )

     Band symmetry, C_s (m)     point group:

     e(  1 -  1) =     -7.04413  eV     1   --> A'             
     e(  2 -  2) =      1.40787  eV     1   --> A'             
     e(  3 -  3) =      3.28853  eV     1   --> A'             
     e(  4 -  4) =      4.76219  eV     1   --> A''            
     e(  5 -  5) =      8.25566  eV     1   --> A'             
     e(  6 -  6) =      9.66674  eV     1   --> A'             
     e(  7 -  7) =      9.75854  eV     1   --> A''            
     e(  8 -  8) =     11.06040  eV     1   --> A'             
     e(  9 -  9) =     13.27127  eV     1   --> A''            
     e( 10 - 10) =     14.98388  eV     1   --> A'             
     e( 11 - 11) =     16.17830  eV     1   --> A'             
     e( 12 - 12) =     17.86013  eV     1   --> A'             

 **************************************************************************

 **************************************************************************

                    xk=(  -0.28125,   0.00000,   0.28125  )

     Band symmetry, C_s (m)     point group:

     e(  1 -  1) =     -7.11463  eV     1   --> A'             
     e(  2 -  2) =      1.64202  eV     1   --> A'             
     e(  3 -  3) =      3.46191  eV     1   --> A'             
     e(  4 -  4) =      4.81782  eV     1   --> A''            
     e(  5 -  5) =      8.20208  eV     1   --> A'             
     e(  6 -  6) =      9.56948  eV     1   --> A'             
     e(  7 -  7) =      9.67180  eV     1   --> A''            
     e(  8 -  8) =     11.01156  eV     1   --> A'             
     e(  9 -  9) =     13.33133  eV     1   --> A''            
     e( 10 - 10) =     14.81631  eV     1   --> A'             
     e( 11 - 11) =     15.98397  eV     1   --> A'             
     e( 12 - 12) =     17.75143  eV     1   --> A'             

 **************************************************************************

 **************************************************************************

                    xk=(  -0.26250,   0.00000,   0.26250  )

     Band symmetry, C_s (m)     point group:

     e(  1 -  1) =     -7.18139  eV     1   --> A'             
     e(  2 -  2) =      1.88297  eV     1   --> A'             
     e(  3 -  3) =      3.63460  eV     1   --> A'             
     e(  4 -  4) =      4.86880  eV     1   --> A''            
     e(  5 -  5) =      8.14277  eV     1   --> A'             
     e(  6 -  6) =      9.48052  eV     1   --> A'             
     e(  7 -  7) =      9.59076  eV     1   --> A''            
     e(  8 -  8) =     10.93242  eV     1   --> A'             
     e(  9 -  9) =     13.40755  eV     1   --> A''            
     e( 10 - 10) =     14.68739  eV     1   --> A'             
     e( 11 - 11) =     15.78551  eV     1   --> A'             
     e( 12 - 12) =     17.65234  eV     1   --> A'             

 **************************************************************************

 **************************************************************************

                    xk=(  -0.24375,   0.00000,   0.24375  )

     Band symmetry, C_s (m)     point group:

     e(  1 -  1) =     -7.24420  eV     1   --> A'             
     e(  2 -  2) =      2.13032  eV     1   --> A'             
     e(  3 -  3) =      3.80540  eV     1   --> A'             
     e(  4 -  4) =      4.91514  eV     1   --> A''            
     e(  5 -  5) =      8.07800  eV     1   --> A'             
     e(  6 -  6) =      9.40004  eV     1   --> A'             
     e(  7 -  7) =      9.51540  eV     1   --> A''            
     e(  8 -  8) =     10.82042  eV     1   --> A'             
     e(  9 -  9) =     13.49972  eV     1   --> A''            
     e( 10 - 10) =     14.60050  eV     1   --> A'             
     e( 11 - 11) =     15.58414  eV     1   --> A'             
     e( 12 - 12) =     17.56249  eV     1   --> A'             

 **************************************************************************

 **************************************************************************

                    xk=(  -0.22500,   0.00000,   0.22500  )

     Band symmetry, C_s (m)     point group:

     e(  1 -  1) =     -7.30290  eV     1   --> A'             
     e(  2 -  2) =      2.38357  eV     1   --> A'             
     e(  3 -  3) =      3.97301  eV     1   --> A'             
     e(  4 -  4) =      4.95688  eV     1   --> A''            
     e(  5 -  5) =      8.00757  eV     1   --> A'             
     e(  6 -  6) =      9.32819  eV     1   --> A'             
     e(  7 -  7) =      9.44567  eV     1   --> A''            
     e(  8 -  8) =     10.67683  eV     1   --> A'             
     e(  9 -  9) =     13.60750  eV     1   --> A''            
     e( 10 - 10) =     14.55373  eV     1   --> A'             
     e( 11 - 11) =     15.38303  eV     1   --> A'             
     e( 12 - 12) =     17.48167  eV     1   --> A'             

 **************************************************************************

 **************************************************************************

                    xk=(  -0.20625,   0.00000,   0.20625  )

     Band symmetry, C_s (m)     point group:

     e(  1 -  1) =     -7.35735  eV     1   --> A'             
     e(  2 -  2) =      2.64216  eV     1   --> A'             
     e(  3 -  3) =      4.13602  eV     1   --> A'             
     e(  4 -  4) =      4.99415  eV     1   --> A''            
     e(  5 -  5) =      7.93071  eV     1   --> A'             
     e(  6 -  6) =      9.26510  eV     1   --> A'             
     e(  7 -  7) =      9.38156  eV     1   --> A''            
     e(  8 -  8) =     10.50655  eV     1   --> A'             
     e(  9 -  9) =     13.73040  eV     1   --> A''            
     e( 10 - 10) =     14.53847  eV     1   --> A'             
     e( 11 - 11) =     15.18911  eV     1   --> A'             
     e( 12 - 12) =     17.40981  eV     1   --> A'             

 **************************************************************************

 **************************************************************************

                    xk=(  -0.18750,   0.00000,   0.18750  )

     Band symmetry, C_s (m)     point group:

     e(  1 -  1) =     -7.40742  eV     1   --> A'             
     e(  2 -  2) =      2.90541  eV     1   --> A'             
     e(  3 -  3) =      4.29289  eV     1   --> A'             
     e(  4 -  4) =      5.02711  eV     1   --> A''            
     e(  5 -  5) =      7.84609  eV     1   --> A'             
     e(  6 -  6) =      9.21081  eV     1   --> A'             
     e(  7 -  7) =      9.32306  eV     1   --> A''            
     e(  8 -  8) =     10.31711  eV     1   --> A'             
     e(  9 -  9) =     13.86775  eV     1   --> A''            
     e( 10 - 10) =     14.53415  eV     1   --> A'             
     e( 11 - 11) =     15.01934  eV     1   --> A'             
     e( 12 - 12) =     17.34693  eV     1   --> A'             

 **************************************************************************

 **************************************************************************

                    xk=(  -0.16875,   0.00000,   0.16875  )

     Band symmetry, C_s (m)     point group:

     e(  1 -  1) =     -7.45301  eV     1   --> A'             
     e(  2 -  2) =      3.17247  eV     1   --> A'             
     e(  3 -  3) =      4.44197  eV     1   --> A'             
     e(  4 -  4) =      5.05596  eV     1   --> A''            
     e(  5 -  5) =      7.75178  eV     1   --> A'             
     e(  6 -  6) =      9.16526  eV     1   --> A'             
     e(  7 -  7) =      9.27013  eV     1   --> A''            
     e(  8 -  8) =     10.11743  eV     1   --> A'             
     e(  9 -  9) =     14.01867  eV     1   --> A''            
     e( 10 - 10) =     14.49561  eV     1   --> A'             
     e( 11 - 11) =     14.91455  eV     1   --> A'             
     e( 12 - 12) =     17.29315  eV     1   --> A'             

 **************************************************************************

 **************************************************************************

                    xk=(  -0.15000,   0.00000,   0.15000  )

     Band symmetry, C_s (m)     point group:

     e(  1 -  1) =     -7.49401  eV     1   --> A'             
     e(  2 -  2) =      3.44225  eV     1   --> A'             
     e(  3 -  3) =      4.58158  eV     1   --> A'             
     e(  4 -  4) =      5.08093  eV     1   --> A''            
     e(  5 -  5) =      7.64542  eV     1   --> A'             
     e(  6 -  6) =      9.12825  eV     1   --> A'             
     e(  7 -  7) =      9.22278  eV     1   --> A''            
     e(  8 -  8) =      9.91687  eV     1   --> A'             
     e(  9 -  9) =     14.18201  eV     1   --> A''            
     e( 10 - 10) =     14.38408  eV     1   --> A'             
     e( 11 - 11) =     14.90923  eV     1   --> A'             
     e( 12 - 12) =     17.24861  eV     1   --> A'             

 **************************************************************************

 **************************************************************************

                    xk=(  -0.13125,   0.00000,   0.13125  )

     Band symmetry, C_s (m)     point group:

     e(  1 -  1) =     -7.53036  eV     1   --> A'             
     e(  2 -  2) =      3.71330  eV     1   --> A'             
     e(  3 -  3) =      4.70996  eV     1   --> A'             
     e(  4 -  4) =      5.10223  eV     1   --> A''            
     e(  5 -  5) =      7.52452  eV     1   --> A'             
     e(  6 -  6) =      9.09937  eV     1   --> A'             
     e(  7 -  7) =      9.18100  eV     1   --> A''            
     e(  8 -  8) =      9.72440  eV     1   --> A'             
     e(  9 -  9) =     14.23080  eV     1   --> A'             
     e( 10 - 10) =     14.35618  eV     1   --> A''            
     e( 11 - 11) =     14.96832  eV     1   --> A'             
     e( 12 - 12) =     17.21339  eV     1   --> A'             

 **************************************************************************

 **************************************************************************

                    xk=(  -0.11250,   0.00000,   0.11250  )

     Band symmetry, C_s (m)     point group:

     e(  1 -  1) =     -7.56198  eV     1   --> A'             
     e(  2 -  2) =      3.98357  eV     1   --> A'             
     e(  3 -  3) =      4.82538  eV     1   --> A'             
     e(  4 -  4) =      5.12013  eV     1   --> A''            
     e(  5 -  5) =      7.38726  eV     1   --> A'             
     e(  6 -  6) =      9.07796  eV     1   --> A'             
     e(  7 -  7) =      9.14479  eV     1   --> A''            
     e(  8 -  8) =      9.54806  eV     1   --> A'             
     e(  9 -  9) =     14.07171  eV     1   --> A'             
     e( 10 - 10) =     14.53898  eV     1   --> A''            
     e( 11 - 11) =     15.05256  eV     1   --> A'             
     e( 12 - 12) =     17.18745  eV     1   --> A'             

 **************************************************************************

 **************************************************************************

                    xk=(  -0.09375,   0.00000,   0.09375  )

     Band symmetry, C_s (m)     point group:

     e(  1 -  1) =     -7.58883  eV     1   --> A'             
     e(  2 -  2) =      4.25001  eV     1   --> A'             
     e(  3 -  3) =      4.92621  eV     1   --> A'             
     e(  4 -  4) =      5.13483  eV     1   --> A''            
     e(  5 -  5) =      7.23352  eV     1   --> A'             
     e(  6 -  6) =      9.06312  eV     1   --> A'             
     e(  7 -  7) =      9.11415  eV     1   --> A''            
     e(  8 -  8) =      9.39421  eV     1   --> A'             
     e(  9 -  9) =     13.92286  eV     1   --> A'             
     e( 10 - 10) =     14.72711  eV     1   --> A''            
     e( 11 - 11) =     15.14300  eV     1   --> A'             
     e( 12 - 12) =     17.17039  eV     1   --> A'             

 **************************************************************************

 **************************************************************************

                    xk=(  -0.07500,   0.00000,   0.07500  )

     Band symmetry, C_s (m)     point group:

     e(  1 -  1) =     -7.61085  eV     1   --> A'             
     e(  2 -  2) =      4.50778  eV     1   --> A'             
     e(  3 -  3) =      5.01093  eV     1   --> A'             
     e(  4 -  4) =      5.14654  eV     1   --> A''            
     e(  5 -  5) =      7.06634  eV     1   --> A'             
     e(  6 -  6) =      9.05368  eV     1   --> A'             
     e(  7 -  7) =      9.08907  eV     1   --> A''            
     e(  8 -  8) =      9.26709  eV     1   --> A'             
     e(  9 -  9) =     13.79240  eV     1   --> A'             
     e( 10 - 10) =     14.91544  eV     1   --> A''            
     e( 11 - 11) =     15.22903  eV     1   --> A'             
     e( 12 - 12) =     17.16125  eV     1   --> A'             

 **************************************************************************

 **************************************************************************

                    xk=(  -0.05625,   0.00000,   0.05625  )

     Band symmetry, C_s (m)     point group:

     e(  1 -  1) =     -7.62801  eV     1   --> A'             
     e(  2 -  2) =      4.74869  eV     1   --> A'             
     e(  3 -  3) =      5.07825  eV     1   --> A'             
     e(  4 -  4) =      5.15546  eV     1   --> A''            
     e(  5 -  5) =      6.89377  eV     1   --> A'             
     e(  6 -  6) =      9.04833  eV     1   --> A'             
     e(  7 -  7) =      9.06956  eV     1   --> A''            
     e(  8 -  8) =      9.16869  eV     1   --> A'             
     e(  9 -  9) =     13.68564  eV     1   --> A'             
     e( 10 - 10) =     15.09549  eV     1   --> A''            
     e( 11 - 11) =     15.30326  eV     1   --> A'             
     e( 12 - 12) =     17.15836  eV     1   --> A'             

 **************************************************************************

 **************************************************************************

                    xk=(  -0.03750,   0.00000,   0.03750  )

     Band symmetry, C_s (m)     point group:

     e(  1 -  1) =     -7.64029  eV     1   --> A'             
     e(  2 -  2) =      4.95795  eV     1   --> A'             
     e(  3 -  3) =      5.12710  eV     1   --> A'             
     e(  4 -  4) =      5.16172  eV     1   --> A''            
     e(  5 -  5) =      6.73163  eV     1   --> A'             
     e(  6 -  6) =      9.04574  eV     1   --> A'             
     e(  7 -  7) =      9.05563  eV     1   --> A''            
     e(  8 -  8) =      9.09924  eV     1   --> A'             
     e(  9 -  9) =     13.60650  eV     1   --> A'             
     e( 10 - 10) =     15.25306  eV     1   --> A''            
     e( 11 - 11) =     15.36016  eV     1   --> A'             
     e( 12 - 12) =     17.15931  eV     1   --> A'             

 **************************************************************************

 **************************************************************************

                    xk=(  -0.01875,   0.00000,   0.01875  )

     Band symmetry, C_s (m)     point group:

     e(  1 -  1) =     -7.64767  eV     1   --> A'             
     e(  2 -  2) =      5.10938  eV     1   --> A'             
     e(  3 -  3) =      5.15673  eV     1   --> A'             
     e(  4 -  4) =      5.16543  eV     1   --> A''            
     e(  5 -  5) =      6.60762  eV     1   --> A'             
     e(  6 -  6) =      9.04472  eV     1   --> A'             
     e(  7 -  7) =      9.04726  eV     1   --> A''            
     e(  8 -  8) =      9.05809  eV     1   --> A'             
     e(  9 -  9) =     13.55785  eV     1   --> A'             
     e( 10 - 10) =     15.36598  eV     1   --> A''            
     e( 11 - 11) =     15.39585  eV     1   --> A'             
     e( 12 - 12) =     17.16139  eV     1   --> A'             

 **************************************************************************

 **************************************************************************

                    xk=(   0.00000,   0.00000,   0.00000  )

     point group T_d (-43m) 
     there are  5 classes
     the character table:

       E     8C3   3C2   6S4   6s_d 
A_1    1.00  1.00  1.00  1.00  1.00
A_2    1.00  1.00  1.00 -1.00 -1.00
E      2.00 -1.00  2.00  0.00  0.00
T_1    3.00  0.00 -1.00  1.00 -1.00
T_2    3.00  0.00 -1.00 -1.00  1.00

     the symmetry operations in each class and the name of the first element:

     E        1
                                                                 
     8C3      5    7    8    6   12    9   10   11
                                                                 
     3C2      2    3    4
                                                                 
     6S4     15   16   20   19   23   24
                                                                 
     6s_d    13   14   17   18   21   22
                                                                 

     Band symmetry, T_d (-43m)  point group:

     e(  1 -  1) =     -7.65013  eV     1   --> A_1  G_1  P_1  
     e(  2 -  4) =      5.16666  eV     3   --> T_2  G_15 P_4  
     e(  5 -  5) =      6.55933  eV     1   --> A_1  G_1  P_1  
     e(  6 -  8) =      9.04448  eV     3   --> T_2  G_15 P_4  
     e(  9 -  9) =     13.54143  eV     1   --> A_1  G_1  P_1  
     e( 10 - 11) =     15.40800  eV     2   --> E    G_12 P_3  
     e( 12 - 12) =     17.16237  eV     1   -->   ?

 **************************************************************************

     BANDS        :      7.78s CPU      7.98s WALL


   This run was terminated on:  12:34:38  25May2024            

=------------------------------------------------------------------------------=
   JOB DONE.
=------------------------------------------------------------------------------=
