
     Program PWSCF v.7.2 starts on 25May2024 at 11:50:26 

     This program is part of the open-source Quantum ESPRESSO suite
     for quantum simulation of materials; please cite
         "P. Giannozzi et al., J. Phys.:Condens. Matter 21 395502 (2009);
         "P. Giannozzi et al., J. Phys.:Condens. Matter 29 465901 (2017);
         "P. Giannozzi et al., J. Chem. Phys. 152 154105 (2020);
          URL http://www.quantum-espresso.org", 
     in publications or presentations arising from this work. More details at
     http://www.quantum-espresso.org/quote

     Serial version
     8526 MiB available memory on the printing compute node when the environment starts

     Waiting for input...
     Reading input from standard input

     Current dimensions of program PWSCF are:
     Max number of different atomic species (ntypx) = 10
     Max number of k-points (npk) =  40000
     Max angular momentum in pseudopotentials (lmaxx) =  4

     Atomic positions and unit cell read from directory:
     ./SCRATCH/gallium_arsenide.save/



     G-vector sticks info
     --------------------
     sticks:   dense  smooth     PW     G-vecs:    dense   smooth      PW
     Sum        1237    1237    361                28643    28643    4477

     Using Slab Decomposition



     bravais-lattice index     =            2
     lattice parameter (alat)  =      10.5831  a.u.
     unit-cell volume          =     296.3351 (a.u.)^3
     number of atoms/cell      =            2
     number of atomic types    =            2
     number of electrons       =        28.00
     number of Kohn-Sham states=           12
     kinetic-energy cutoff     =      80.0000  Ry
     charge density cutoff     =     320.0000  Ry
     Exchange-correlation= SLA  PW   NOGX NOGC
                           (   1   4   0   0   0   0   0)

     celldm(1)=  10.583136  celldm(2)=   0.000000  celldm(3)=   0.000000
     celldm(4)=   0.000000  celldm(5)=   0.000000  celldm(6)=   0.000000

     crystal axes: (cart. coord. in units of alat)
               a(1) = (  -0.500000   0.000000   0.500000 )  
               a(2) = (   0.000000   0.500000   0.500000 )  
               a(3) = (  -0.500000   0.500000   0.000000 )  

     reciprocal axes: (cart. coord. in units 2 pi/alat)
               b(1) = ( -1.000000 -1.000000  1.000000 )  
               b(2) = (  1.000000  1.000000  1.000000 )  
               b(3) = ( -1.000000  1.000000 -1.000000 )  


     PseudoPot. # 1 for Ga read from file:
     /home/paolo/project_labqsm/pseudopotentials/Ga.upf
     MD5 check sum: 1297264db1911d3fa8c63c42f023f390
     Pseudo is Norm-conserving + core correction, Zval = 13.0
     Generated using ONCVPSP code by D. R. Hamann
     Using radial grid of 1858 points,  6 beta functions with: 
                l(1) =   0
                l(2) =   0
                l(3) =   1
                l(4) =   1
                l(5) =   2
                l(6) =   2

     PseudoPot. # 2 for As read from file:
     /home/paolo/project_labqsm/pseudopotentials/As.upf
     MD5 check sum: 33c531620a5edaf59d417d4ab58437b1
     Pseudo is Norm-conserving + core correction, Zval = 15.0
     Generated using ONCVPSP code by D. R. Hamann
     Using radial grid of 1326 points,  6 beta functions with: 
                l(1) =   0
                l(2) =   0
                l(3) =   1
                l(4) =   1
                l(5) =   2
                l(6) =   2

     atomic species   valence    mass     pseudopotential
        Ga            13.00    69.72300     Ga( 1.00)
        As            15.00    74.92200     As( 1.00)

     24 Sym. Ops. (no inversion) found


                                    s                        frac. trans.

      isym =  1     identity                                     

 cryst.   s( 1) = (     1          0          0      )
                  (     0          1          0      )
                  (     0          0          1      )

 cart.    s( 1) = (  1.0000000  0.0000000  0.0000000 )
                  (  0.0000000  1.0000000  0.0000000 )
                  (  0.0000000  0.0000000  1.0000000 )


      isym =  2     180 deg rotation - cart. axis [0,0,1]        

 cryst.   s( 2) = (     0          1         -1      )
                  (     1          0         -1      )
                  (     0          0         -1      )

 cart.    s( 2) = ( -1.0000000  0.0000000  0.0000000 )
                  (  0.0000000 -1.0000000  0.0000000 )
                  (  0.0000000  0.0000000  1.0000000 )


      isym =  3     180 deg rotation - cart. axis [0,1,0]        

 cryst.   s( 3) = (    -1          0          0      )
                  (    -1          0          1      )
                  (    -1          1          0      )

 cart.    s( 3) = ( -1.0000000  0.0000000  0.0000000 )
                  (  0.0000000  1.0000000  0.0000000 )
                  (  0.0000000  0.0000000 -1.0000000 )


      isym =  4     180 deg rotation - cart. axis [1,0,0]        

 cryst.   s( 4) = (     0         -1          1      )
                  (     0         -1          0      )
                  (     1         -1          0      )

 cart.    s( 4) = (  1.0000000  0.0000000  0.0000000 )
                  (  0.0000000 -1.0000000  0.0000000 )
                  (  0.0000000  0.0000000 -1.0000000 )


      isym =  5     120 deg rotation - cart. axis [-1,-1,-1]     

 cryst.   s( 5) = (    -1          0          1      )
                  (    -1          1          0      )
                  (    -1          0          0      )

 cart.    s( 5) = (  0.0000000  1.0000000  0.0000000 )
                  (  0.0000000  0.0000000  1.0000000 )
                  (  1.0000000  0.0000000  0.0000000 )


      isym =  6     120 deg rotation - cart. axis [-1,1,1]       

 cryst.   s( 6) = (     0          1          0      )
                  (     0          0          1      )
                  (     1          0          0      )

 cart.    s( 6) = (  0.0000000 -1.0000000  0.0000000 )
                  (  0.0000000  0.0000000  1.0000000 )
                  ( -1.0000000  0.0000000  0.0000000 )


      isym =  7     120 deg rotation - cart. axis [1,1,-1]       

 cryst.   s( 7) = (     1          0         -1      )
                  (     0          0         -1      )
                  (     0          1         -1      )

 cart.    s( 7) = (  0.0000000  1.0000000  0.0000000 )
                  (  0.0000000  0.0000000 -1.0000000 )
                  ( -1.0000000  0.0000000  0.0000000 )


      isym =  8     120 deg rotation - cart. axis [1,-1,1]       

 cryst.   s( 8) = (     0         -1          0      )
                  (     1         -1          0      )
                  (     0         -1          1      )

 cart.    s( 8) = (  0.0000000 -1.0000000  0.0000000 )
                  (  0.0000000  0.0000000 -1.0000000 )
                  (  1.0000000  0.0000000  0.0000000 )


      isym =  9     120 deg rotation - cart. axis [1,1,1]        

 cryst.   s( 9) = (     0          0         -1      )
                  (     0          1         -1      )
                  (     1          0         -1      )

 cart.    s( 9) = (  0.0000000  0.0000000  1.0000000 )
                  (  1.0000000  0.0000000  0.0000000 )
                  (  0.0000000  1.0000000  0.0000000 )


      isym = 10     120 deg rotation - cart. axis [-1,1,-1]      

 cryst.   s(10) = (    -1          1          0      )
                  (    -1          0          0      )
                  (    -1          0          1      )

 cart.    s(10) = (  0.0000000  0.0000000  1.0000000 )
                  ( -1.0000000  0.0000000  0.0000000 )
                  (  0.0000000 -1.0000000  0.0000000 )


      isym = 11     120 deg rotation - cart. axis [1,-1,-1]      

 cryst.   s(11) = (     0          0          1      )
                  (     1          0          0      )
                  (     0          1          0      )

 cart.    s(11) = (  0.0000000  0.0000000 -1.0000000 )
                  ( -1.0000000  0.0000000  0.0000000 )
                  (  0.0000000  1.0000000  0.0000000 )


      isym = 12     120 deg rotation - cart. axis [-1,-1,1]      

 cryst.   s(12) = (     1         -1          0      )
                  (     0         -1          1      )
                  (     0         -1          0      )

 cart.    s(12) = (  0.0000000  0.0000000 -1.0000000 )
                  (  1.0000000  0.0000000  0.0000000 )
                  (  0.0000000 -1.0000000  0.0000000 )


      isym = 13     inv. 180 deg rotation - cart. axis [1,1,0]   

 cryst.   s(13) = (     0          1          0      )
                  (     1          0          0      )
                  (     0          0          1      )

 cart.    s(13) = (  0.0000000 -1.0000000  0.0000000 )
                  ( -1.0000000  0.0000000  0.0000000 )
                  (  0.0000000  0.0000000  1.0000000 )


      isym = 14     inv. 180 deg rotation - cart. axis [1,-1,0]  

 cryst.   s(14) = (     1          0         -1      )
                  (     0          1         -1      )
                  (     0          0         -1      )

 cart.    s(14) = (  0.0000000  1.0000000  0.0000000 )
                  (  1.0000000  0.0000000  0.0000000 )
                  (  0.0000000  0.0000000  1.0000000 )


      isym = 15     inv.  90 deg rotation - cart. axis [0,0,-1]  

 cryst.   s(15) = (     0         -1          0      )
                  (     0         -1          1      )
                  (     1         -1          0      )

 cart.    s(15) = (  0.0000000 -1.0000000  0.0000000 )
                  (  1.0000000  0.0000000  0.0000000 )
                  (  0.0000000  0.0000000 -1.0000000 )


      isym = 16     inv.  90 deg rotation - cart. axis [0,0,1]   

 cryst.   s(16) = (    -1          0          1      )
                  (    -1          0          0      )
                  (    -1          1          0      )

 cart.    s(16) = (  0.0000000  1.0000000  0.0000000 )
                  ( -1.0000000  0.0000000  0.0000000 )
                  (  0.0000000  0.0000000 -1.0000000 )


      isym = 17     inv. 180 deg rotation - cart. axis [1,0,1]   

 cryst.   s(17) = (     1          0          0      )
                  (     0          0          1      )
                  (     0          1          0      )

 cart.    s(17) = (  0.0000000  0.0000000 -1.0000000 )
                  (  0.0000000  1.0000000  0.0000000 )
                  ( -1.0000000  0.0000000  0.0000000 )


      isym = 18     inv. 180 deg rotation - cart. axis [-1,0,1]  

 cryst.   s(18) = (    -1          0          0      )
                  (    -1          1          0      )
                  (    -1          0          1      )

 cart.    s(18) = (  0.0000000  0.0000000  1.0000000 )
                  (  0.0000000  1.0000000  0.0000000 )
                  (  1.0000000  0.0000000  0.0000000 )


      isym = 19     inv.  90 deg rotation - cart. axis [0,1,0]   

 cryst.   s(19) = (     0         -1          1      )
                  (     1         -1          0      )
                  (     0         -1          0      )

 cart.    s(19) = (  0.0000000  0.0000000 -1.0000000 )
                  (  0.0000000 -1.0000000  0.0000000 )
                  (  1.0000000  0.0000000  0.0000000 )


      isym = 20     inv.  90 deg rotation - cart. axis [0,-1,0]  

 cryst.   s(20) = (     0          1         -1      )
                  (     0          0         -1      )
                  (     1          0         -1      )

 cart.    s(20) = (  0.0000000  0.0000000  1.0000000 )
                  (  0.0000000 -1.0000000  0.0000000 )
                  ( -1.0000000  0.0000000  0.0000000 )


      isym = 21     inv. 180 deg rotation - cart. axis [0,1,1]   

 cryst.   s(21) = (     1         -1          0      )
                  (     0         -1          0      )
                  (     0         -1          1      )

 cart.    s(21) = (  1.0000000  0.0000000  0.0000000 )
                  (  0.0000000  0.0000000 -1.0000000 )
                  (  0.0000000 -1.0000000  0.0000000 )


      isym = 22     inv. 180 deg rotation - cart. axis [0,1,-1]  

 cryst.   s(22) = (     0          0          1      )
                  (     0          1          0      )
                  (     1          0          0      )

 cart.    s(22) = (  1.0000000  0.0000000  0.0000000 )
                  (  0.0000000  0.0000000  1.0000000 )
                  (  0.0000000  1.0000000  0.0000000 )


      isym = 23     inv.  90 deg rotation - cart. axis [-1,0,0]  

 cryst.   s(23) = (     0          0         -1      )
                  (     1          0         -1      )
                  (     0          1         -1      )

 cart.    s(23) = ( -1.0000000  0.0000000  0.0000000 )
                  (  0.0000000  0.0000000 -1.0000000 )
                  (  0.0000000  1.0000000  0.0000000 )


      isym = 24     inv.  90 deg rotation - cart. axis [1,0,0]   

 cryst.   s(24) = (    -1          1          0      )
                  (    -1          0          1      )
                  (    -1          0          0      )

 cart.    s(24) = ( -1.0000000  0.0000000  0.0000000 )
                  (  0.0000000  0.0000000  1.0000000 )
                  (  0.0000000 -1.0000000  0.0000000 )


     point group T_d (-43m) 
     there are  5 classes
     the character table:

       E     8C3   3C2   6S4   6s_d 
A_1    1.00  1.00  1.00  1.00  1.00
A_2    1.00  1.00  1.00 -1.00 -1.00
E      2.00 -1.00  2.00  0.00  0.00
T_1    3.00  0.00 -1.00  1.00 -1.00
T_2    3.00  0.00 -1.00 -1.00  1.00

     the symmetry operations in each class and the name of the first element:

     E        1
          identity                                               
     8C3      5    7    8    6   12    9   10   11
          120 deg rotation - cart. axis [-1,-1,-1]               
     3C2      2    3    4
          180 deg rotation - cart. axis [0,0,1]                  
     6S4     15   16   20   19   23   24
          inv.  90 deg rotation - cart. axis [0,0,-1]            
     6s_d    13   14   17   18   21   22
          inv. 180 deg rotation - cart. axis [1,1,0]             

   Cartesian axes

     site n.     atom                  positions (alat units)
         1           Ga  tau(   1) = (   0.0000000   0.0000000   0.0000000  )
         2           As  tau(   2) = (   0.2500000   0.2500000   0.2500000  )

   Crystallographic axes

     site n.     atom                  positions (cryst. coord.)
         1           Ga  tau(   1) = (  0.0000000  0.0000000  0.0000000  )
         2           As  tau(   2) = ( -0.2500000  0.7500000 -0.2500000  )

     number of k points=   201
                       cart. coord. in units 2pi/alat
        k(    1) = (   0.0000000   0.0000000   1.0000000), wk =   0.0099502
        k(    2) = (   0.0000000   0.0000000   0.9750000), wk =   0.0099502
        k(    3) = (   0.0000000   0.0000000   0.9500000), wk =   0.0099502
        k(    4) = (   0.0000000   0.0000000   0.9250000), wk =   0.0099502
        k(    5) = (   0.0000000   0.0000000   0.9000000), wk =   0.0099502
        k(    6) = (   0.0000000   0.0000000   0.8750000), wk =   0.0099502
        k(    7) = (   0.0000000   0.0000000   0.8500000), wk =   0.0099502
        k(    8) = (   0.0000000   0.0000000   0.8250000), wk =   0.0099502
        k(    9) = (   0.0000000   0.0000000   0.8000000), wk =   0.0099502
        k(   10) = (   0.0000000   0.0000000   0.7750000), wk =   0.0099502
        k(   11) = (   0.0000000   0.0000000   0.7500000), wk =   0.0099502
        k(   12) = (   0.0000000   0.0000000   0.7250000), wk =   0.0099502
        k(   13) = (   0.0000000   0.0000000   0.7000000), wk =   0.0099502
        k(   14) = (   0.0000000   0.0000000   0.6750000), wk =   0.0099502
        k(   15) = (   0.0000000   0.0000000   0.6500000), wk =   0.0099502
        k(   16) = (   0.0000000   0.0000000   0.6250000), wk =   0.0099502
        k(   17) = (   0.0000000   0.0000000   0.6000000), wk =   0.0099502
        k(   18) = (   0.0000000   0.0000000   0.5750000), wk =   0.0099502
        k(   19) = (   0.0000000   0.0000000   0.5500000), wk =   0.0099502
        k(   20) = (   0.0000000   0.0000000   0.5250000), wk =   0.0099502
        k(   21) = (   0.0000000   0.0000000   0.5000000), wk =   0.0099502
        k(   22) = (   0.0000000   0.0000000   0.4750000), wk =   0.0099502
        k(   23) = (   0.0000000   0.0000000   0.4500000), wk =   0.0099502
        k(   24) = (   0.0000000   0.0000000   0.4250000), wk =   0.0099502
        k(   25) = (   0.0000000   0.0000000   0.4000000), wk =   0.0099502
        k(   26) = (   0.0000000   0.0000000   0.3750000), wk =   0.0099502
        k(   27) = (   0.0000000   0.0000000   0.3500000), wk =   0.0099502
        k(   28) = (   0.0000000   0.0000000   0.3250000), wk =   0.0099502
        k(   29) = (   0.0000000   0.0000000   0.3000000), wk =   0.0099502
        k(   30) = (   0.0000000   0.0000000   0.2750000), wk =   0.0099502
        k(   31) = (   0.0000000   0.0000000   0.2500000), wk =   0.0099502
        k(   32) = (   0.0000000   0.0000000   0.2250000), wk =   0.0099502
        k(   33) = (   0.0000000   0.0000000   0.2000000), wk =   0.0099502
        k(   34) = (   0.0000000   0.0000000   0.1750000), wk =   0.0099502
        k(   35) = (   0.0000000   0.0000000   0.1500000), wk =   0.0099502
        k(   36) = (   0.0000000   0.0000000   0.1250000), wk =   0.0099502
        k(   37) = (   0.0000000   0.0000000   0.1000000), wk =   0.0099502
        k(   38) = (   0.0000000   0.0000000   0.0750000), wk =   0.0099502
        k(   39) = (   0.0000000   0.0000000   0.0500000), wk =   0.0099502
        k(   40) = (   0.0000000   0.0000000   0.0250000), wk =   0.0099502
        k(   41) = (   0.0000000   0.0000000   0.0000000), wk =   0.0099502
        k(   42) = (  -0.0125000   0.0125000   0.0125000), wk =   0.0099502
        k(   43) = (  -0.0250000   0.0250000   0.0250000), wk =   0.0099502
        k(   44) = (  -0.0375000   0.0375000   0.0375000), wk =   0.0099502
        k(   45) = (  -0.0500000   0.0500000   0.0500000), wk =   0.0099502
        k(   46) = (  -0.0625000   0.0625000   0.0625000), wk =   0.0099502
        k(   47) = (  -0.0750000   0.0750000   0.0750000), wk =   0.0099502
        k(   48) = (  -0.0875000   0.0875000   0.0875000), wk =   0.0099502
        k(   49) = (  -0.1000000   0.1000000   0.1000000), wk =   0.0099502
        k(   50) = (  -0.1125000   0.1125000   0.1125000), wk =   0.0099502
        k(   51) = (  -0.1250000   0.1250000   0.1250000), wk =   0.0099502
        k(   52) = (  -0.1375000   0.1375000   0.1375000), wk =   0.0099502
        k(   53) = (  -0.1500000   0.1500000   0.1500000), wk =   0.0099502
        k(   54) = (  -0.1625000   0.1625000   0.1625000), wk =   0.0099502
        k(   55) = (  -0.1750000   0.1750000   0.1750000), wk =   0.0099502
        k(   56) = (  -0.1875000   0.1875000   0.1875000), wk =   0.0099502
        k(   57) = (  -0.2000000   0.2000000   0.2000000), wk =   0.0099502
        k(   58) = (  -0.2125000   0.2125000   0.2125000), wk =   0.0099502
        k(   59) = (  -0.2250000   0.2250000   0.2250000), wk =   0.0099502
        k(   60) = (  -0.2375000   0.2375000   0.2375000), wk =   0.0099502
        k(   61) = (  -0.2500000   0.2500000   0.2500000), wk =   0.0099502
        k(   62) = (  -0.2625000   0.2625000   0.2625000), wk =   0.0099502
        k(   63) = (  -0.2750000   0.2750000   0.2750000), wk =   0.0099502
        k(   64) = (  -0.2875000   0.2875000   0.2875000), wk =   0.0099502
        k(   65) = (  -0.3000000   0.3000000   0.3000000), wk =   0.0099502
        k(   66) = (  -0.3125000   0.3125000   0.3125000), wk =   0.0099502
        k(   67) = (  -0.3250000   0.3250000   0.3250000), wk =   0.0099502
        k(   68) = (  -0.3375000   0.3375000   0.3375000), wk =   0.0099502
        k(   69) = (  -0.3500000   0.3500000   0.3500000), wk =   0.0099502
        k(   70) = (  -0.3625000   0.3625000   0.3625000), wk =   0.0099502
        k(   71) = (  -0.3750000   0.3750000   0.3750000), wk =   0.0099502
        k(   72) = (  -0.3875000   0.3875000   0.3875000), wk =   0.0099502
        k(   73) = (  -0.4000000   0.4000000   0.4000000), wk =   0.0099502
        k(   74) = (  -0.4125000   0.4125000   0.4125000), wk =   0.0099502
        k(   75) = (  -0.4250000   0.4250000   0.4250000), wk =   0.0099502
        k(   76) = (  -0.4375000   0.4375000   0.4375000), wk =   0.0099502
        k(   77) = (  -0.4500000   0.4500000   0.4500000), wk =   0.0099502
        k(   78) = (  -0.4625000   0.4625000   0.4625000), wk =   0.0099502
        k(   79) = (  -0.4750000   0.4750000   0.4750000), wk =   0.0099502
        k(   80) = (  -0.4875000   0.4875000   0.4875000), wk =   0.0099502
        k(   81) = (  -0.5000000   0.5000000   0.5000000), wk =   0.0099502
        k(   82) = (  -0.5000000   0.4875000   0.5125000), wk =   0.0099502
        k(   83) = (  -0.5000000   0.4750000   0.5250000), wk =   0.0099502
        k(   84) = (  -0.5000000   0.4625000   0.5375000), wk =   0.0099502
        k(   85) = (  -0.5000000   0.4500000   0.5500000), wk =   0.0099502
        k(   86) = (  -0.5000000   0.4375000   0.5625000), wk =   0.0099502
        k(   87) = (  -0.5000000   0.4250000   0.5750000), wk =   0.0099502
        k(   88) = (  -0.5000000   0.4125000   0.5875000), wk =   0.0099502
        k(   89) = (  -0.5000000   0.4000000   0.6000000), wk =   0.0099502
        k(   90) = (  -0.5000000   0.3875000   0.6125000), wk =   0.0099502
        k(   91) = (  -0.5000000   0.3750000   0.6250000), wk =   0.0099502
        k(   92) = (  -0.5000000   0.3625000   0.6375000), wk =   0.0099502
        k(   93) = (  -0.5000000   0.3500000   0.6500000), wk =   0.0099502
        k(   94) = (  -0.5000000   0.3375000   0.6625000), wk =   0.0099502
        k(   95) = (  -0.5000000   0.3250000   0.6750000), wk =   0.0099502
        k(   96) = (  -0.5000000   0.3125000   0.6875000), wk =   0.0099502
        k(   97) = (  -0.5000000   0.3000000   0.7000000), wk =   0.0099502
        k(   98) = (  -0.5000000   0.2875000   0.7125000), wk =   0.0099502
        k(   99) = (  -0.5000000   0.2750000   0.7250000), wk =   0.0099502
        k(  100) = (  -0.5000000   0.2625000   0.7375000), wk =   0.0099502
        k(  101) = (  -0.5000000   0.2500000   0.7500000), wk =   0.0099502
        k(  102) = (  -0.5000000   0.2375000   0.7625000), wk =   0.0099502
        k(  103) = (  -0.5000000   0.2250000   0.7750000), wk =   0.0099502
        k(  104) = (  -0.5000000   0.2125000   0.7875000), wk =   0.0099502
        k(  105) = (  -0.5000000   0.2000000   0.8000000), wk =   0.0099502
        k(  106) = (  -0.5000000   0.1875000   0.8125000), wk =   0.0099502
        k(  107) = (  -0.5000000   0.1750000   0.8250000), wk =   0.0099502
        k(  108) = (  -0.5000000   0.1625000   0.8375000), wk =   0.0099502
        k(  109) = (  -0.5000000   0.1500000   0.8500000), wk =   0.0099502
        k(  110) = (  -0.5000000   0.1375000   0.8625000), wk =   0.0099502
        k(  111) = (  -0.5000000   0.1250000   0.8750000), wk =   0.0099502
        k(  112) = (  -0.5000000   0.1125000   0.8875000), wk =   0.0099502
        k(  113) = (  -0.5000000   0.1000000   0.9000000), wk =   0.0099502
        k(  114) = (  -0.5000000   0.0875000   0.9125000), wk =   0.0099502
        k(  115) = (  -0.5000000   0.0750000   0.9250000), wk =   0.0099502
        k(  116) = (  -0.5000000   0.0625000   0.9375000), wk =   0.0099502
        k(  117) = (  -0.5000000   0.0500000   0.9500000), wk =   0.0099502
        k(  118) = (  -0.5000000   0.0375000   0.9625000), wk =   0.0099502
        k(  119) = (  -0.5000000   0.0250000   0.9750000), wk =   0.0099502
        k(  120) = (  -0.5000000   0.0125000   0.9875000), wk =   0.0099502
        k(  121) = (  -0.5000000   0.0000000   1.0000000), wk =   0.0099502
        k(  122) = (  -0.5062500   0.0000000   0.9937500), wk =   0.0099502
        k(  123) = (  -0.5125000   0.0000000   0.9875000), wk =   0.0099502
        k(  124) = (  -0.5187500   0.0000000   0.9812500), wk =   0.0099502
        k(  125) = (  -0.5250000   0.0000000   0.9750000), wk =   0.0099502
        k(  126) = (  -0.5312500   0.0000000   0.9687500), wk =   0.0099502
        k(  127) = (  -0.5375000   0.0000000   0.9625000), wk =   0.0099502
        k(  128) = (  -0.5437500   0.0000000   0.9562500), wk =   0.0099502
        k(  129) = (  -0.5500000   0.0000000   0.9500000), wk =   0.0099502
        k(  130) = (  -0.5562500   0.0000000   0.9437500), wk =   0.0099502
        k(  131) = (  -0.5625000   0.0000000   0.9375000), wk =   0.0099502
        k(  132) = (  -0.5687500   0.0000000   0.9312500), wk =   0.0099502
        k(  133) = (  -0.5750000   0.0000000   0.9250000), wk =   0.0099502
        k(  134) = (  -0.5812500   0.0000000   0.9187500), wk =   0.0099502
        k(  135) = (  -0.5875000   0.0000000   0.9125000), wk =   0.0099502
        k(  136) = (  -0.5937500   0.0000000   0.9062500), wk =   0.0099502
        k(  137) = (  -0.6000000   0.0000000   0.9000000), wk =   0.0099502
        k(  138) = (  -0.6062500   0.0000000   0.8937500), wk =   0.0099502
        k(  139) = (  -0.6125000   0.0000000   0.8875000), wk =   0.0099502
        k(  140) = (  -0.6187500   0.0000000   0.8812500), wk =   0.0099502
        k(  141) = (  -0.6250000   0.0000000   0.8750000), wk =   0.0099502
        k(  142) = (  -0.6312500   0.0000000   0.8687500), wk =   0.0099502
        k(  143) = (  -0.6375000   0.0000000   0.8625000), wk =   0.0099502
        k(  144) = (  -0.6437500   0.0000000   0.8562500), wk =   0.0099502
        k(  145) = (  -0.6500000   0.0000000   0.8500000), wk =   0.0099502
        k(  146) = (  -0.6562500   0.0000000   0.8437500), wk =   0.0099502
        k(  147) = (  -0.6625000   0.0000000   0.8375000), wk =   0.0099502
        k(  148) = (  -0.6687500   0.0000000   0.8312500), wk =   0.0099502
        k(  149) = (  -0.6750000   0.0000000   0.8250000), wk =   0.0099502
        k(  150) = (  -0.6812500   0.0000000   0.8187500), wk =   0.0099502
        k(  151) = (  -0.6875000   0.0000000   0.8125000), wk =   0.0099502
        k(  152) = (  -0.6937500   0.0000000   0.8062500), wk =   0.0099502
        k(  153) = (  -0.7000000   0.0000000   0.8000000), wk =   0.0099502
        k(  154) = (  -0.7062500   0.0000000   0.7937500), wk =   0.0099502
        k(  155) = (  -0.7125000   0.0000000   0.7875000), wk =   0.0099502
        k(  156) = (  -0.7187500   0.0000000   0.7812500), wk =   0.0099502
        k(  157) = (  -0.7250000   0.0000000   0.7750000), wk =   0.0099502
        k(  158) = (  -0.7312500   0.0000000   0.7687500), wk =   0.0099502
        k(  159) = (  -0.7375000   0.0000000   0.7625000), wk =   0.0099502
        k(  160) = (  -0.7437500   0.0000000   0.7562500), wk =   0.0099502
        k(  161) = (  -0.7500000   0.0000000   0.7500000), wk =   0.0099502
        k(  162) = (  -0.7312500   0.0000000   0.7312500), wk =   0.0099502
        k(  163) = (  -0.7125000   0.0000000   0.7125000), wk =   0.0099502
        k(  164) = (  -0.6937500   0.0000000   0.6937500), wk =   0.0099502
        k(  165) = (  -0.6750000   0.0000000   0.6750000), wk =   0.0099502
        k(  166) = (  -0.6562500   0.0000000   0.6562500), wk =   0.0099502
        k(  167) = (  -0.6375000   0.0000000   0.6375000), wk =   0.0099502
        k(  168) = (  -0.6187500   0.0000000   0.6187500), wk =   0.0099502
        k(  169) = (  -0.6000000   0.0000000   0.6000000), wk =   0.0099502
        k(  170) = (  -0.5812500   0.0000000   0.5812500), wk =   0.0099502
        k(  171) = (  -0.5625000   0.0000000   0.5625000), wk =   0.0099502
        k(  172) = (  -0.5437500   0.0000000   0.5437500), wk =   0.0099502
        k(  173) = (  -0.5250000   0.0000000   0.5250000), wk =   0.0099502
        k(  174) = (  -0.5062500   0.0000000   0.5062500), wk =   0.0099502
        k(  175) = (  -0.4875000   0.0000000   0.4875000), wk =   0.0099502
        k(  176) = (  -0.4687500   0.0000000   0.4687500), wk =   0.0099502
        k(  177) = (  -0.4500000   0.0000000   0.4500000), wk =   0.0099502
        k(  178) = (  -0.4312500   0.0000000   0.4312500), wk =   0.0099502
        k(  179) = (  -0.4125000   0.0000000   0.4125000), wk =   0.0099502
        k(  180) = (  -0.3937500   0.0000000   0.3937500), wk =   0.0099502
        k(  181) = (  -0.3750000   0.0000000   0.3750000), wk =   0.0099502
        k(  182) = (  -0.3562500   0.0000000   0.3562500), wk =   0.0099502
        k(  183) = (  -0.3375000   0.0000000   0.3375000), wk =   0.0099502
        k(  184) = (  -0.3187500   0.0000000   0.3187500), wk =   0.0099502
        k(  185) = (  -0.3000000   0.0000000   0.3000000), wk =   0.0099502
        k(  186) = (  -0.2812500   0.0000000   0.2812500), wk =   0.0099502
        k(  187) = (  -0.2625000   0.0000000   0.2625000), wk =   0.0099502
        k(  188) = (  -0.2437500   0.0000000   0.2437500), wk =   0.0099502
        k(  189) = (  -0.2250000   0.0000000   0.2250000), wk =   0.0099502
        k(  190) = (  -0.2062500   0.0000000   0.2062500), wk =   0.0099502
        k(  191) = (  -0.1875000   0.0000000   0.1875000), wk =   0.0099502
        k(  192) = (  -0.1687500   0.0000000   0.1687500), wk =   0.0099502
        k(  193) = (  -0.1500000   0.0000000   0.1500000), wk =   0.0099502
        k(  194) = (  -0.1312500   0.0000000   0.1312500), wk =   0.0099502
        k(  195) = (  -0.1125000   0.0000000   0.1125000), wk =   0.0099502
        k(  196) = (  -0.0937500   0.0000000   0.0937500), wk =   0.0099502
        k(  197) = (  -0.0750000   0.0000000   0.0750000), wk =   0.0099502
        k(  198) = (  -0.0562500   0.0000000   0.0562500), wk =   0.0099502
        k(  199) = (  -0.0375000   0.0000000   0.0375000), wk =   0.0099502
        k(  200) = (  -0.0187500   0.0000000   0.0187500), wk =   0.0099502
        k(  201) = (   0.0000000   0.0000000   0.0000000), wk =   0.0099502

                       cryst. coord.
        k(    1) = (   0.5000000   0.5000000   0.0000000), wk =   0.0099502
        k(    2) = (   0.4875000   0.4875000   0.0000000), wk =   0.0099502
        k(    3) = (   0.4750000   0.4750000   0.0000000), wk =   0.0099502
        k(    4) = (   0.4625000   0.4625000   0.0000000), wk =   0.0099502
        k(    5) = (   0.4500000   0.4500000   0.0000000), wk =   0.0099502
        k(    6) = (   0.4375000   0.4375000   0.0000000), wk =   0.0099502
        k(    7) = (   0.4250000   0.4250000   0.0000000), wk =   0.0099502
        k(    8) = (   0.4125000   0.4125000   0.0000000), wk =   0.0099502
        k(    9) = (   0.4000000   0.4000000   0.0000000), wk =   0.0099502
        k(   10) = (   0.3875000   0.3875000   0.0000000), wk =   0.0099502
        k(   11) = (   0.3750000   0.3750000   0.0000000), wk =   0.0099502
        k(   12) = (   0.3625000   0.3625000   0.0000000), wk =   0.0099502
        k(   13) = (   0.3500000   0.3500000   0.0000000), wk =   0.0099502
        k(   14) = (   0.3375000   0.3375000   0.0000000), wk =   0.0099502
        k(   15) = (   0.3250000   0.3250000   0.0000000), wk =   0.0099502
        k(   16) = (   0.3125000   0.3125000   0.0000000), wk =   0.0099502
        k(   17) = (   0.3000000   0.3000000   0.0000000), wk =   0.0099502
        k(   18) = (   0.2875000   0.2875000   0.0000000), wk =   0.0099502
        k(   19) = (   0.2750000   0.2750000   0.0000000), wk =   0.0099502
        k(   20) = (   0.2625000   0.2625000   0.0000000), wk =   0.0099502
        k(   21) = (   0.2500000   0.2500000   0.0000000), wk =   0.0099502
        k(   22) = (   0.2375000   0.2375000   0.0000000), wk =   0.0099502
        k(   23) = (   0.2250000   0.2250000   0.0000000), wk =   0.0099502
        k(   24) = (   0.2125000   0.2125000   0.0000000), wk =   0.0099502
        k(   25) = (   0.2000000   0.2000000   0.0000000), wk =   0.0099502
        k(   26) = (   0.1875000   0.1875000   0.0000000), wk =   0.0099502
        k(   27) = (   0.1750000   0.1750000   0.0000000), wk =   0.0099502
        k(   28) = (   0.1625000   0.1625000   0.0000000), wk =   0.0099502
        k(   29) = (   0.1500000   0.1500000   0.0000000), wk =   0.0099502
        k(   30) = (   0.1375000   0.1375000   0.0000000), wk =   0.0099502
        k(   31) = (   0.1250000   0.1250000   0.0000000), wk =   0.0099502
        k(   32) = (   0.1125000   0.1125000   0.0000000), wk =   0.0099502
        k(   33) = (   0.1000000   0.1000000   0.0000000), wk =   0.0099502
        k(   34) = (   0.0875000   0.0875000   0.0000000), wk =   0.0099502
        k(   35) = (   0.0750000   0.0750000   0.0000000), wk =   0.0099502
        k(   36) = (   0.0625000   0.0625000   0.0000000), wk =   0.0099502
        k(   37) = (   0.0500000   0.0500000   0.0000000), wk =   0.0099502
        k(   38) = (   0.0375000   0.0375000   0.0000000), wk =   0.0099502
        k(   39) = (   0.0250000   0.0250000   0.0000000), wk =   0.0099502
        k(   40) = (   0.0125000   0.0125000   0.0000000), wk =   0.0099502
        k(   41) = (   0.0000000   0.0000000   0.0000000), wk =   0.0099502
        k(   42) = (   0.0125000   0.0125000   0.0125000), wk =   0.0099502
        k(   43) = (   0.0250000   0.0250000   0.0250000), wk =   0.0099502
        k(   44) = (   0.0375000   0.0375000   0.0375000), wk =   0.0099502
        k(   45) = (   0.0500000   0.0500000   0.0500000), wk =   0.0099502
        k(   46) = (   0.0625000   0.0625000   0.0625000), wk =   0.0099502
        k(   47) = (   0.0750000   0.0750000   0.0750000), wk =   0.0099502
        k(   48) = (   0.0875000   0.0875000   0.0875000), wk =   0.0099502
        k(   49) = (   0.1000000   0.1000000   0.1000000), wk =   0.0099502
        k(   50) = (   0.1125000   0.1125000   0.1125000), wk =   0.0099502
        k(   51) = (   0.1250000   0.1250000   0.1250000), wk =   0.0099502
        k(   52) = (   0.1375000   0.1375000   0.1375000), wk =   0.0099502
        k(   53) = (   0.1500000   0.1500000   0.1500000), wk =   0.0099502
        k(   54) = (   0.1625000   0.1625000   0.1625000), wk =   0.0099502
        k(   55) = (   0.1750000   0.1750000   0.1750000), wk =   0.0099502
        k(   56) = (   0.1875000   0.1875000   0.1875000), wk =   0.0099502
        k(   57) = (   0.2000000   0.2000000   0.2000000), wk =   0.0099502
        k(   58) = (   0.2125000   0.2125000   0.2125000), wk =   0.0099502
        k(   59) = (   0.2250000   0.2250000   0.2250000), wk =   0.0099502
        k(   60) = (   0.2375000   0.2375000   0.2375000), wk =   0.0099502
        k(   61) = (   0.2500000   0.2500000   0.2500000), wk =   0.0099502
        k(   62) = (   0.2625000   0.2625000   0.2625000), wk =   0.0099502
        k(   63) = (   0.2750000   0.2750000   0.2750000), wk =   0.0099502
        k(   64) = (   0.2875000   0.2875000   0.2875000), wk =   0.0099502
        k(   65) = (   0.3000000   0.3000000   0.3000000), wk =   0.0099502
        k(   66) = (   0.3125000   0.3125000   0.3125000), wk =   0.0099502
        k(   67) = (   0.3250000   0.3250000   0.3250000), wk =   0.0099502
        k(   68) = (   0.3375000   0.3375000   0.3375000), wk =   0.0099502
        k(   69) = (   0.3500000   0.3500000   0.3500000), wk =   0.0099502
        k(   70) = (   0.3625000   0.3625000   0.3625000), wk =   0.0099502
        k(   71) = (   0.3750000   0.3750000   0.3750000), wk =   0.0099502
        k(   72) = (   0.3875000   0.3875000   0.3875000), wk =   0.0099502
        k(   73) = (   0.4000000   0.4000000   0.4000000), wk =   0.0099502
        k(   74) = (   0.4125000   0.4125000   0.4125000), wk =   0.0099502
        k(   75) = (   0.4250000   0.4250000   0.4250000), wk =   0.0099502
        k(   76) = (   0.4375000   0.4375000   0.4375000), wk =   0.0099502
        k(   77) = (   0.4500000   0.4500000   0.4500000), wk =   0.0099502
        k(   78) = (   0.4625000   0.4625000   0.4625000), wk =   0.0099502
        k(   79) = (   0.4750000   0.4750000   0.4750000), wk =   0.0099502
        k(   80) = (   0.4875000   0.4875000   0.4875000), wk =   0.0099502
        k(   81) = (   0.5000000   0.5000000   0.5000000), wk =   0.0099502
        k(   82) = (   0.5062500   0.5000000   0.4937500), wk =   0.0099502
        k(   83) = (   0.5125000   0.5000000   0.4875000), wk =   0.0099502
        k(   84) = (   0.5187500   0.5000000   0.4812500), wk =   0.0099502
        k(   85) = (   0.5250000   0.5000000   0.4750000), wk =   0.0099502
        k(   86) = (   0.5312500   0.5000000   0.4687500), wk =   0.0099502
        k(   87) = (   0.5375000   0.5000000   0.4625000), wk =   0.0099502
        k(   88) = (   0.5437500   0.5000000   0.4562500), wk =   0.0099502
        k(   89) = (   0.5500000   0.5000000   0.4500000), wk =   0.0099502
        k(   90) = (   0.5562500   0.5000000   0.4437500), wk =   0.0099502
        k(   91) = (   0.5625000   0.5000000   0.4375000), wk =   0.0099502
        k(   92) = (   0.5687500   0.5000000   0.4312500), wk =   0.0099502
        k(   93) = (   0.5750000   0.5000000   0.4250000), wk =   0.0099502
        k(   94) = (   0.5812500   0.5000000   0.4187500), wk =   0.0099502
        k(   95) = (   0.5875000   0.5000000   0.4125000), wk =   0.0099502
        k(   96) = (   0.5937500   0.5000000   0.4062500), wk =   0.0099502
        k(   97) = (   0.6000000   0.5000000   0.4000000), wk =   0.0099502
        k(   98) = (   0.6062500   0.5000000   0.3937500), wk =   0.0099502
        k(   99) = (   0.6125000   0.5000000   0.3875000), wk =   0.0099502
        k(  100) = (   0.6187500   0.5000000   0.3812500), wk =   0.0099502
        k(  101) = (   0.6250000   0.5000000   0.3750000), wk =   0.0099502
        k(  102) = (   0.6312500   0.5000000   0.3687500), wk =   0.0099502
        k(  103) = (   0.6375000   0.5000000   0.3625000), wk =   0.0099502
        k(  104) = (   0.6437500   0.5000000   0.3562500), wk =   0.0099502
        k(  105) = (   0.6500000   0.5000000   0.3500000), wk =   0.0099502
        k(  106) = (   0.6562500   0.5000000   0.3437500), wk =   0.0099502
        k(  107) = (   0.6625000   0.5000000   0.3375000), wk =   0.0099502
        k(  108) = (   0.6687500   0.5000000   0.3312500), wk =   0.0099502
        k(  109) = (   0.6750000   0.5000000   0.3250000), wk =   0.0099502
        k(  110) = (   0.6812500   0.5000000   0.3187500), wk =   0.0099502
        k(  111) = (   0.6875000   0.5000000   0.3125000), wk =   0.0099502
        k(  112) = (   0.6937500   0.5000000   0.3062500), wk =   0.0099502
        k(  113) = (   0.7000000   0.5000000   0.3000000), wk =   0.0099502
        k(  114) = (   0.7062500   0.5000000   0.2937500), wk =   0.0099502
        k(  115) = (   0.7125000   0.5000000   0.2875000), wk =   0.0099502
        k(  116) = (   0.7187500   0.5000000   0.2812500), wk =   0.0099502
        k(  117) = (   0.7250000   0.5000000   0.2750000), wk =   0.0099502
        k(  118) = (   0.7312500   0.5000000   0.2687500), wk =   0.0099502
        k(  119) = (   0.7375000   0.5000000   0.2625000), wk =   0.0099502
        k(  120) = (   0.7437500   0.5000000   0.2562500), wk =   0.0099502
        k(  121) = (   0.7500000   0.5000000   0.2500000), wk =   0.0099502
        k(  122) = (   0.7500000   0.4968750   0.2531250), wk =   0.0099502
        k(  123) = (   0.7500000   0.4937500   0.2562500), wk =   0.0099502
        k(  124) = (   0.7500000   0.4906250   0.2593750), wk =   0.0099502
        k(  125) = (   0.7500000   0.4875000   0.2625000), wk =   0.0099502
        k(  126) = (   0.7500000   0.4843750   0.2656250), wk =   0.0099502
        k(  127) = (   0.7500000   0.4812500   0.2687500), wk =   0.0099502
        k(  128) = (   0.7500000   0.4781250   0.2718750), wk =   0.0099502
        k(  129) = (   0.7500000   0.4750000   0.2750000), wk =   0.0099502
        k(  130) = (   0.7500000   0.4718750   0.2781250), wk =   0.0099502
        k(  131) = (   0.7500000   0.4687500   0.2812500), wk =   0.0099502
        k(  132) = (   0.7500000   0.4656250   0.2843750), wk =   0.0099502
        k(  133) = (   0.7500000   0.4625000   0.2875000), wk =   0.0099502
        k(  134) = (   0.7500000   0.4593750   0.2906250), wk =   0.0099502
        k(  135) = (   0.7500000   0.4562500   0.2937500), wk =   0.0099502
        k(  136) = (   0.7500000   0.4531250   0.2968750), wk =   0.0099502
        k(  137) = (   0.7500000   0.4500000   0.3000000), wk =   0.0099502
        k(  138) = (   0.7500000   0.4468750   0.3031250), wk =   0.0099502
        k(  139) = (   0.7500000   0.4437500   0.3062500), wk =   0.0099502
        k(  140) = (   0.7500000   0.4406250   0.3093750), wk =   0.0099502
        k(  141) = (   0.7500000   0.4375000   0.3125000), wk =   0.0099502
        k(  142) = (   0.7500000   0.4343750   0.3156250), wk =   0.0099502
        k(  143) = (   0.7500000   0.4312500   0.3187500), wk =   0.0099502
        k(  144) = (   0.7500000   0.4281250   0.3218750), wk =   0.0099502
        k(  145) = (   0.7500000   0.4250000   0.3250000), wk =   0.0099502
        k(  146) = (   0.7500000   0.4218750   0.3281250), wk =   0.0099502
        k(  147) = (   0.7500000   0.4187500   0.3312500), wk =   0.0099502
        k(  148) = (   0.7500000   0.4156250   0.3343750), wk =   0.0099502
        k(  149) = (   0.7500000   0.4125000   0.3375000), wk =   0.0099502
        k(  150) = (   0.7500000   0.4093750   0.3406250), wk =   0.0099502
        k(  151) = (   0.7500000   0.4062500   0.3437500), wk =   0.0099502
        k(  152) = (   0.7500000   0.4031250   0.3468750), wk =   0.0099502
        k(  153) = (   0.7500000   0.4000000   0.3500000), wk =   0.0099502
        k(  154) = (   0.7500000   0.3968750   0.3531250), wk =   0.0099502
        k(  155) = (   0.7500000   0.3937500   0.3562500), wk =   0.0099502
        k(  156) = (   0.7500000   0.3906250   0.3593750), wk =   0.0099502
        k(  157) = (   0.7500000   0.3875000   0.3625000), wk =   0.0099502
        k(  158) = (   0.7500000   0.3843750   0.3656250), wk =   0.0099502
        k(  159) = (   0.7500000   0.3812500   0.3687500), wk =   0.0099502
        k(  160) = (   0.7500000   0.3781250   0.3718750), wk =   0.0099502
        k(  161) = (   0.7500000   0.3750000   0.3750000), wk =   0.0099502
        k(  162) = (   0.7312500   0.3656250   0.3656250), wk =   0.0099502
        k(  163) = (   0.7125000   0.3562500   0.3562500), wk =   0.0099502
        k(  164) = (   0.6937500   0.3468750   0.3468750), wk =   0.0099502
        k(  165) = (   0.6750000   0.3375000   0.3375000), wk =   0.0099502
        k(  166) = (   0.6562500   0.3281250   0.3281250), wk =   0.0099502
        k(  167) = (   0.6375000   0.3187500   0.3187500), wk =   0.0099502
        k(  168) = (   0.6187500   0.3093750   0.3093750), wk =   0.0099502
        k(  169) = (   0.6000000   0.3000000   0.3000000), wk =   0.0099502
        k(  170) = (   0.5812500   0.2906250   0.2906250), wk =   0.0099502
        k(  171) = (   0.5625000   0.2812500   0.2812500), wk =   0.0099502
        k(  172) = (   0.5437500   0.2718750   0.2718750), wk =   0.0099502
        k(  173) = (   0.5250000   0.2625000   0.2625000), wk =   0.0099502
        k(  174) = (   0.5062500   0.2531250   0.2531250), wk =   0.0099502
        k(  175) = (   0.4875000   0.2437500   0.2437500), wk =   0.0099502
        k(  176) = (   0.4687500   0.2343750   0.2343750), wk =   0.0099502
        k(  177) = (   0.4500000   0.2250000   0.2250000), wk =   0.0099502
        k(  178) = (   0.4312500   0.2156250   0.2156250), wk =   0.0099502
        k(  179) = (   0.4125000   0.2062500   0.2062500), wk =   0.0099502
        k(  180) = (   0.3937500   0.1968750   0.1968750), wk =   0.0099502
        k(  181) = (   0.3750000   0.1875000   0.1875000), wk =   0.0099502
        k(  182) = (   0.3562500   0.1781250   0.1781250), wk =   0.0099502
        k(  183) = (   0.3375000   0.1687500   0.1687500), wk =   0.0099502
        k(  184) = (   0.3187500   0.1593750   0.1593750), wk =   0.0099502
        k(  185) = (   0.3000000   0.1500000   0.1500000), wk =   0.0099502
        k(  186) = (   0.2812500   0.1406250   0.1406250), wk =   0.0099502
        k(  187) = (   0.2625000   0.1312500   0.1312500), wk =   0.0099502
        k(  188) = (   0.2437500   0.1218750   0.1218750), wk =   0.0099502
        k(  189) = (   0.2250000   0.1125000   0.1125000), wk =   0.0099502
        k(  190) = (   0.2062500   0.1031250   0.1031250), wk =   0.0099502
        k(  191) = (   0.1875000   0.0937500   0.0937500), wk =   0.0099502
        k(  192) = (   0.1687500   0.0843750   0.0843750), wk =   0.0099502
        k(  193) = (   0.1500000   0.0750000   0.0750000), wk =   0.0099502
        k(  194) = (   0.1312500   0.0656250   0.0656250), wk =   0.0099502
        k(  195) = (   0.1125000   0.0562500   0.0562500), wk =   0.0099502
        k(  196) = (   0.0937500   0.0468750   0.0468750), wk =   0.0099502
        k(  197) = (   0.0750000   0.0375000   0.0375000), wk =   0.0099502
        k(  198) = (   0.0562500   0.0281250   0.0281250), wk =   0.0099502
        k(  199) = (   0.0375000   0.0187500   0.0187500), wk =   0.0099502
        k(  200) = (   0.0187500   0.0093750   0.0093750), wk =   0.0099502
        k(  201) = (   0.0000000   0.0000000   0.0000000), wk =   0.0099502

     Dense  grid:    28643 G-vectors     FFT dimensions: (  45,  45,  45)

     Dynamical RAM for                 wfc:       0.66 MB

     Dynamical RAM for     wfc (w. buffer):       0.66 MB

     Dynamical RAM for           str. fact:       0.87 MB

     Dynamical RAM for           local pot:       0.00 MB

     Dynamical RAM for          nlocal pot:       1.97 MB

     Dynamical RAM for                qrad:       2.87 MB

     Dynamical RAM for          rho,v,vnew:       3.40 MB

     Dynamical RAM for           G-vectors:       1.86 MB

     Dynamical RAM for          h,s,v(r/c):       0.03 MB

     Dynamical RAM for          <psi|beta>:       0.01 MB

     Dynamical RAM for                 psi:       1.31 MB

     Dynamical RAM for                hpsi:       1.31 MB

     Dynamical RAM for      wfcinit/wfcrot:       1.97 MB

     Estimated static dynamical RAM per process >      16.41 MB

     Estimated max dynamical RAM per process >      19.07 MB

     The potential is recalculated from file :
     ./SCRATCH/gallium_arsenide.save/charge-density

     Starting wfcs are   18 randomized atomic wfcs

     Band Structure Calculation
     Davidson diagonalization with overlap

     Computing kpt #:     1  of   201
     total cpu time spent up to now is        0.8 secs

     Computing kpt #:     2  of   201
     total cpu time spent up to now is        1.2 secs

     Computing kpt #:     3  of   201
     total cpu time spent up to now is        1.7 secs

     Computing kpt #:     4  of   201
     total cpu time spent up to now is        2.2 secs

     Computing kpt #:     5  of   201
     total cpu time spent up to now is        2.6 secs

     Computing kpt #:     6  of   201
     total cpu time spent up to now is        3.1 secs

     Computing kpt #:     7  of   201
     total cpu time spent up to now is        3.6 secs

     Computing kpt #:     8  of   201
     total cpu time spent up to now is        4.1 secs

     Computing kpt #:     9  of   201
     total cpu time spent up to now is        4.6 secs

     Computing kpt #:    10  of   201
     total cpu time spent up to now is        5.0 secs

     Computing kpt #:    11  of   201
     total cpu time spent up to now is        5.5 secs

     Computing kpt #:    12  of   201
     total cpu time spent up to now is        6.0 secs

     Computing kpt #:    13  of   201
     total cpu time spent up to now is        6.5 secs

     Computing kpt #:    14  of   201
     total cpu time spent up to now is        7.0 secs

     Computing kpt #:    15  of   201
     total cpu time spent up to now is        7.4 secs

     Computing kpt #:    16  of   201
     total cpu time spent up to now is        7.9 secs

     Computing kpt #:    17  of   201
     total cpu time spent up to now is        8.4 secs

     Computing kpt #:    18  of   201
     total cpu time spent up to now is        8.9 secs

     Computing kpt #:    19  of   201
     total cpu time spent up to now is        9.4 secs

     Computing kpt #:    20  of   201
     total cpu time spent up to now is        9.9 secs

     Computing kpt #:    21  of   201
     total cpu time spent up to now is       10.4 secs

     Computing kpt #:    22  of   201
     total cpu time spent up to now is       10.9 secs

     Computing kpt #:    23  of   201
     total cpu time spent up to now is       11.4 secs

     Computing kpt #:    24  of   201
     total cpu time spent up to now is       11.9 secs

     Computing kpt #:    25  of   201
     total cpu time spent up to now is       12.4 secs

     Computing kpt #:    26  of   201
     total cpu time spent up to now is       12.9 secs

     Computing kpt #:    27  of   201
     total cpu time spent up to now is       13.4 secs

     Computing kpt #:    28  of   201
     total cpu time spent up to now is       13.9 secs

     Computing kpt #:    29  of   201
     total cpu time spent up to now is       14.4 secs

     Computing kpt #:    30  of   201
     total cpu time spent up to now is       14.9 secs

     Computing kpt #:    31  of   201
     total cpu time spent up to now is       15.4 secs

     Computing kpt #:    32  of   201
     total cpu time spent up to now is       15.9 secs

     Computing kpt #:    33  of   201
     total cpu time spent up to now is       16.4 secs

     Computing kpt #:    34  of   201
     total cpu time spent up to now is       16.9 secs

     Computing kpt #:    35  of   201
     total cpu time spent up to now is       17.5 secs

     Computing kpt #:    36  of   201
     total cpu time spent up to now is       18.0 secs

     Computing kpt #:    37  of   201
     total cpu time spent up to now is       18.5 secs

     Computing kpt #:    38  of   201
     total cpu time spent up to now is       19.1 secs

     Computing kpt #:    39  of   201
     total cpu time spent up to now is       19.7 secs

     Computing kpt #:    40  of   201
     total cpu time spent up to now is       20.4 secs

     Computing kpt #:    41  of   201
     total cpu time spent up to now is       20.9 secs

     Computing kpt #:    42  of   201
     total cpu time spent up to now is       21.6 secs

     Computing kpt #:    43  of   201
     total cpu time spent up to now is       22.2 secs

     Computing kpt #:    44  of   201
     total cpu time spent up to now is       22.8 secs

     Computing kpt #:    45  of   201
     total cpu time spent up to now is       23.3 secs

     Computing kpt #:    46  of   201
     total cpu time spent up to now is       23.8 secs

     Computing kpt #:    47  of   201
     total cpu time spent up to now is       24.3 secs

     Computing kpt #:    48  of   201
     total cpu time spent up to now is       24.8 secs

     Computing kpt #:    49  of   201
     total cpu time spent up to now is       25.3 secs

     Computing kpt #:    50  of   201
     total cpu time spent up to now is       25.9 secs

     Computing kpt #:    51  of   201
     total cpu time spent up to now is       26.4 secs

     Computing kpt #:    52  of   201
     total cpu time spent up to now is       26.9 secs

     Computing kpt #:    53  of   201
     total cpu time spent up to now is       27.4 secs

     Computing kpt #:    54  of   201
     total cpu time spent up to now is       27.9 secs

     Computing kpt #:    55  of   201
     total cpu time spent up to now is       28.4 secs

     Computing kpt #:    56  of   201
     total cpu time spent up to now is       28.9 secs

     Computing kpt #:    57  of   201
     total cpu time spent up to now is       29.4 secs

     Computing kpt #:    58  of   201
     total cpu time spent up to now is       29.9 secs

     Computing kpt #:    59  of   201
     total cpu time spent up to now is       30.4 secs

     Computing kpt #:    60  of   201
     total cpu time spent up to now is       30.8 secs

     Computing kpt #:    61  of   201
     total cpu time spent up to now is       31.3 secs

     Computing kpt #:    62  of   201
     total cpu time spent up to now is       31.8 secs

     Computing kpt #:    63  of   201
     total cpu time spent up to now is       32.2 secs

     Computing kpt #:    64  of   201
     total cpu time spent up to now is       32.7 secs

     Computing kpt #:    65  of   201
     total cpu time spent up to now is       33.2 secs

     Computing kpt #:    66  of   201
     total cpu time spent up to now is       33.6 secs

     Computing kpt #:    67  of   201
     total cpu time spent up to now is       34.1 secs

     Computing kpt #:    68  of   201
     total cpu time spent up to now is       34.5 secs

     Computing kpt #:    69  of   201
     total cpu time spent up to now is       35.0 secs

     Computing kpt #:    70  of   201
     total cpu time spent up to now is       35.5 secs

     Computing kpt #:    71  of   201
     total cpu time spent up to now is       35.9 secs

     Computing kpt #:    72  of   201
     total cpu time spent up to now is       36.4 secs

     Computing kpt #:    73  of   201
     total cpu time spent up to now is       36.8 secs

     Computing kpt #:    74  of   201
     total cpu time spent up to now is       37.2 secs

     Computing kpt #:    75  of   201
     total cpu time spent up to now is       37.7 secs

     Computing kpt #:    76  of   201
     total cpu time spent up to now is       38.1 secs

     Computing kpt #:    77  of   201
     total cpu time spent up to now is       38.5 secs

     Computing kpt #:    78  of   201
     total cpu time spent up to now is       39.0 secs

     Computing kpt #:    79  of   201
     total cpu time spent up to now is       39.4 secs

     Computing kpt #:    80  of   201
     total cpu time spent up to now is       39.8 secs

     Computing kpt #:    81  of   201
     total cpu time spent up to now is       40.3 secs

     Computing kpt #:    82  of   201
     total cpu time spent up to now is       40.7 secs

     Computing kpt #:    83  of   201
     total cpu time spent up to now is       41.1 secs

     Computing kpt #:    84  of   201
     total cpu time spent up to now is       41.6 secs

     Computing kpt #:    85  of   201
     total cpu time spent up to now is       42.0 secs

     Computing kpt #:    86  of   201
     total cpu time spent up to now is       42.5 secs

     Computing kpt #:    87  of   201
     total cpu time spent up to now is       42.9 secs

     Computing kpt #:    88  of   201
     total cpu time spent up to now is       43.3 secs

     Computing kpt #:    89  of   201
     total cpu time spent up to now is       43.8 secs

     Computing kpt #:    90  of   201
     total cpu time spent up to now is       44.2 secs

     Computing kpt #:    91  of   201
     total cpu time spent up to now is       44.7 secs

     Computing kpt #:    92  of   201
     total cpu time spent up to now is       45.2 secs

     Computing kpt #:    93  of   201
     total cpu time spent up to now is       45.6 secs

     Computing kpt #:    94  of   201
     total cpu time spent up to now is       46.1 secs

     Computing kpt #:    95  of   201
     total cpu time spent up to now is       46.6 secs

     Computing kpt #:    96  of   201
     total cpu time spent up to now is       47.1 secs

     Computing kpt #:    97  of   201
     total cpu time spent up to now is       47.6 secs

     Computing kpt #:    98  of   201
     total cpu time spent up to now is       48.1 secs

     Computing kpt #:    99  of   201
     total cpu time spent up to now is       48.6 secs

     Computing kpt #:   100  of   201
     total cpu time spent up to now is       49.1 secs

     Computing kpt #:   101  of   201
     total cpu time spent up to now is       49.6 secs

     Computing kpt #:   102  of   201
     total cpu time spent up to now is       50.1 secs

     Computing kpt #:   103  of   201
     total cpu time spent up to now is       50.6 secs

     Computing kpt #:   104  of   201
     total cpu time spent up to now is       51.1 secs

     Computing kpt #:   105  of   201
     total cpu time spent up to now is       51.6 secs

     Computing kpt #:   106  of   201
     total cpu time spent up to now is       52.1 secs

     Computing kpt #:   107  of   201
     total cpu time spent up to now is       52.6 secs

     Computing kpt #:   108  of   201
     total cpu time spent up to now is       53.1 secs

     Computing kpt #:   109  of   201
     total cpu time spent up to now is       53.6 secs

     Computing kpt #:   110  of   201
     total cpu time spent up to now is       54.1 secs

     Computing kpt #:   111  of   201
     total cpu time spent up to now is       54.6 secs

     Computing kpt #:   112  of   201
     total cpu time spent up to now is       55.1 secs

     Computing kpt #:   113  of   201
     total cpu time spent up to now is       55.6 secs

     Computing kpt #:   114  of   201
     total cpu time spent up to now is       56.1 secs

     Computing kpt #:   115  of   201
     total cpu time spent up to now is       56.6 secs

     Computing kpt #:   116  of   201
     total cpu time spent up to now is       57.1 secs

     Computing kpt #:   117  of   201
     total cpu time spent up to now is       57.6 secs

     Computing kpt #:   118  of   201
     total cpu time spent up to now is       58.2 secs

     Computing kpt #:   119  of   201
     total cpu time spent up to now is       58.7 secs

     Computing kpt #:   120  of   201
     total cpu time spent up to now is       59.2 secs

     Computing kpt #:   121  of   201
     total cpu time spent up to now is       59.7 secs

     Computing kpt #:   122  of   201
     total cpu time spent up to now is       60.2 secs

     Computing kpt #:   123  of   201
     total cpu time spent up to now is       60.7 secs

     Computing kpt #:   124  of   201
     total cpu time spent up to now is       61.2 secs

     Computing kpt #:   125  of   201
     total cpu time spent up to now is       61.7 secs

     Computing kpt #:   126  of   201
     total cpu time spent up to now is       62.2 secs

     Computing kpt #:   127  of   201
     total cpu time spent up to now is       62.7 secs

     Computing kpt #:   128  of   201
     total cpu time spent up to now is       63.2 secs

     Computing kpt #:   129  of   201
     total cpu time spent up to now is       63.7 secs

     Computing kpt #:   130  of   201
     total cpu time spent up to now is       64.2 secs

     Computing kpt #:   131  of   201
     total cpu time spent up to now is       64.7 secs

     Computing kpt #:   132  of   201
     total cpu time spent up to now is       65.2 secs

     Computing kpt #:   133  of   201
     total cpu time spent up to now is       65.8 secs

     Computing kpt #:   134  of   201
     total cpu time spent up to now is       66.3 secs

     Computing kpt #:   135  of   201
     total cpu time spent up to now is       66.8 secs

     Computing kpt #:   136  of   201
     total cpu time spent up to now is       67.3 secs

     Computing kpt #:   137  of   201
     total cpu time spent up to now is       67.8 secs

     Computing kpt #:   138  of   201
     total cpu time spent up to now is       68.3 secs

     Computing kpt #:   139  of   201
     total cpu time spent up to now is       68.8 secs

     Computing kpt #:   140  of   201
     total cpu time spent up to now is       69.3 secs

     Computing kpt #:   141  of   201
     total cpu time spent up to now is       69.8 secs

     Computing kpt #:   142  of   201
     total cpu time spent up to now is       70.3 secs

     Computing kpt #:   143  of   201
     total cpu time spent up to now is       70.8 secs

     Computing kpt #:   144  of   201
     total cpu time spent up to now is       71.3 secs

     Computing kpt #:   145  of   201
     total cpu time spent up to now is       71.8 secs

     Computing kpt #:   146  of   201
     total cpu time spent up to now is       72.3 secs

     Computing kpt #:   147  of   201
     total cpu time spent up to now is       72.8 secs

     Computing kpt #:   148  of   201
     total cpu time spent up to now is       73.3 secs

     Computing kpt #:   149  of   201
     total cpu time spent up to now is       73.8 secs

     Computing kpt #:   150  of   201
     total cpu time spent up to now is       74.4 secs

     Computing kpt #:   151  of   201
     total cpu time spent up to now is       74.9 secs

     Computing kpt #:   152  of   201
     total cpu time spent up to now is       75.4 secs

     Computing kpt #:   153  of   201
     total cpu time spent up to now is       75.9 secs

     Computing kpt #:   154  of   201
     total cpu time spent up to now is       76.4 secs

     Computing kpt #:   155  of   201
     total cpu time spent up to now is       76.9 secs

     Computing kpt #:   156  of   201
     total cpu time spent up to now is       77.4 secs

     Computing kpt #:   157  of   201
     total cpu time spent up to now is       77.9 secs

     Computing kpt #:   158  of   201
     total cpu time spent up to now is       78.4 secs

     Computing kpt #:   159  of   201
     total cpu time spent up to now is       78.9 secs

     Computing kpt #:   160  of   201
     total cpu time spent up to now is       79.4 secs

     Computing kpt #:   161  of   201
     total cpu time spent up to now is       79.9 secs

     Computing kpt #:   162  of   201
     total cpu time spent up to now is       80.4 secs

     Computing kpt #:   163  of   201
     total cpu time spent up to now is       80.9 secs

     Computing kpt #:   164  of   201
     total cpu time spent up to now is       81.4 secs

     Computing kpt #:   165  of   201
     total cpu time spent up to now is       81.9 secs

     Computing kpt #:   166  of   201
     total cpu time spent up to now is       82.4 secs

     Computing kpt #:   167  of   201
     total cpu time spent up to now is       83.0 secs

     Computing kpt #:   168  of   201
     total cpu time spent up to now is       83.5 secs

     Computing kpt #:   169  of   201
     total cpu time spent up to now is       84.0 secs

     Computing kpt #:   170  of   201
     total cpu time spent up to now is       84.5 secs

     Computing kpt #:   171  of   201
     total cpu time spent up to now is       85.0 secs

     Computing kpt #:   172  of   201
     total cpu time spent up to now is       85.5 secs

     Computing kpt #:   173  of   201
     total cpu time spent up to now is       86.0 secs

     Computing kpt #:   174  of   201
     total cpu time spent up to now is       86.5 secs

     Computing kpt #:   175  of   201
     total cpu time spent up to now is       87.0 secs

     Computing kpt #:   176  of   201
     total cpu time spent up to now is       87.5 secs

     Computing kpt #:   177  of   201
     total cpu time spent up to now is       88.0 secs

     Computing kpt #:   178  of   201
     total cpu time spent up to now is       88.5 secs

     Computing kpt #:   179  of   201
     total cpu time spent up to now is       89.0 secs

     Computing kpt #:   180  of   201
     total cpu time spent up to now is       89.5 secs

     Computing kpt #:   181  of   201
     total cpu time spent up to now is       90.0 secs

     Computing kpt #:   182  of   201
     total cpu time spent up to now is       90.5 secs

     Computing kpt #:   183  of   201
     total cpu time spent up to now is       91.0 secs

     Computing kpt #:   184  of   201
     total cpu time spent up to now is       91.5 secs

     Computing kpt #:   185  of   201
     total cpu time spent up to now is       92.0 secs

     Computing kpt #:   186  of   201
     total cpu time spent up to now is       92.5 secs

     Computing kpt #:   187  of   201
     total cpu time spent up to now is       93.0 secs

     Computing kpt #:   188  of   201
     total cpu time spent up to now is       93.5 secs

     Computing kpt #:   189  of   201
     total cpu time spent up to now is       94.0 secs

     Computing kpt #:   190  of   201
     total cpu time spent up to now is       94.5 secs

     Computing kpt #:   191  of   201
     total cpu time spent up to now is       95.0 secs

     Computing kpt #:   192  of   201
     total cpu time spent up to now is       95.5 secs

     Computing kpt #:   193  of   201
     total cpu time spent up to now is       96.0 secs

     Computing kpt #:   194  of   201
     total cpu time spent up to now is       96.5 secs

     Computing kpt #:   195  of   201
     total cpu time spent up to now is       97.0 secs

     Computing kpt #:   196  of   201
     total cpu time spent up to now is       97.6 secs

     Computing kpt #:   197  of   201
     total cpu time spent up to now is       98.1 secs

     Computing kpt #:   198  of   201
     total cpu time spent up to now is       98.6 secs

     Computing kpt #:   199  of   201
     total cpu time spent up to now is       99.2 secs

     Computing kpt #:   200  of   201
     total cpu time spent up to now is       99.9 secs

     Computing kpt #:   201  of   201
     total cpu time spent up to now is      100.4 secs

     ethr =  3.57E-11,  avg # of iterations = 24.8

     total cpu time spent up to now is      100.4 secs

     End of band structure calculation

          k = 0.0000 0.0000 1.0000 (  3572 PWs)   bands (ev):

   -26.4690 -26.4660 -26.4660 -26.4569 -26.4552  -6.1892  -6.0130  -6.0130
    -6.0103  -5.9680  -1.4814   1.8842

          k = 0.0000 0.0000 0.9750 (  3572 PWs)   bands (ev):

   -26.4690 -26.4660 -26.4660 -26.4569 -26.4552  -6.1890  -6.0131  -6.0131
    -6.0103  -5.9680  -1.4900   1.8958

          k = 0.0000 0.0000 0.9500 (  3564 PWs)   bands (ev):

   -26.4690 -26.4660 -26.4660 -26.4569 -26.4552  -6.1886  -6.0134  -6.0134
    -6.0101  -5.9681  -1.5153   1.9301

          k = 0.0000 0.0000 0.9250 (  3563 PWs)   bands (ev):

   -26.4690 -26.4660 -26.4660 -26.4569 -26.4552  -6.1879  -6.0138  -6.0138
    -6.0098  -5.9682  -1.5564   1.9862

          k = 0.0000 0.0000 0.9000 (  3555 PWs)   bands (ev):

   -26.4690 -26.4660 -26.4660 -26.4569 -26.4553  -6.1869  -6.0144  -6.0144
    -6.0095  -5.9683  -1.6116   2.0623

          k = 0.0000 0.0000 0.8750 (  3567 PWs)   bands (ev):

   -26.4689 -26.4660 -26.4660 -26.4569 -26.4553  -6.1856  -6.0152  -6.0152
    -6.0090  -5.9685  -1.6790   2.1566

          k = 0.0000 0.0000 0.8500 (  3575 PWs)   bands (ev):

   -26.4689 -26.4661 -26.4661 -26.4569 -26.4553  -6.1841  -6.0161  -6.0161
    -6.0085  -5.9687  -1.7566   2.2671

          k = 0.0000 0.0000 0.8250 (  3591 PWs)   bands (ev):

   -26.4689 -26.4661 -26.4661 -26.4569 -26.4553  -6.1823  -6.0172  -6.0172
    -6.0079  -5.9690  -1.8425   2.3917

          k = 0.0000 0.0000 0.8000 (  3571 PWs)   bands (ev):

   -26.4689 -26.4662 -26.4662 -26.4568 -26.4553  -6.1802  -6.0184  -6.0184
    -6.0071  -5.9693  -1.9348   2.5286

          k = 0.0000 0.0000 0.7750 (  3575 PWs)   bands (ev):

   -26.4689 -26.4662 -26.4662 -26.4569 -26.4554  -6.1778  -6.0198  -6.0198
    -6.0064  -5.9696  -2.0319   2.6761

          k = 0.0000 0.0000 0.7500 (  3563 PWs)   bands (ev):

   -26.4688 -26.4663 -26.4663 -26.4568 -26.4554  -6.1752  -6.0213  -6.0213
    -6.0055  -5.9700  -2.1325   2.8329

          k = 0.0000 0.0000 0.7250 (  3559 PWs)   bands (ev):

   -26.4688 -26.4663 -26.4663 -26.4568 -26.4554  -6.1724  -6.0229  -6.0229
    -6.0045  -5.9703  -2.2353   2.9977

          k = 0.0000 0.0000 0.7000 (  3567 PWs)   bands (ev):

   -26.4688 -26.4664 -26.4664 -26.4568 -26.4555  -6.1693  -6.0246  -6.0246
    -6.0036  -5.9708  -2.3393   3.1694

          k = 0.0000 0.0000 0.6750 (  3567 PWs)   bands (ev):

   -26.4688 -26.4665 -26.4665 -26.4568 -26.4555  -6.1660  -6.0264  -6.0264
    -6.0025  -5.9712  -2.4437   3.3472

          k = 0.0000 0.0000 0.6500 (  3567 PWs)   bands (ev):

   -26.4687 -26.4665 -26.4665 -26.4568 -26.4555  -6.1625  -6.0283  -6.0283
    -6.0014  -5.9716  -2.5476   3.5302

          k = 0.0000 0.0000 0.6250 (  3559 PWs)   bands (ev):

   -26.4687 -26.4666 -26.4666 -26.4567 -26.4556  -6.1587  -6.0303  -6.0303
    -6.0003  -5.9721  -2.6506   3.7178

          k = 0.0000 0.0000 0.6000 (  3567 PWs)   bands (ev):

   -26.4687 -26.4667 -26.4667 -26.4567 -26.4556  -6.1548  -6.0323  -6.0323
    -5.9991  -5.9726  -2.7521   3.9096

          k = 0.0000 0.0000 0.5750 (  3567 PWs)   bands (ev):

   -26.4686 -26.4667 -26.4667 -26.4567 -26.4557  -6.1507  -6.0344  -6.0344
    -5.9980  -5.9731  -2.8517   4.1049

          k = 0.0000 0.0000 0.5500 (  3567 PWs)   bands (ev):

   -26.4686 -26.4668 -26.4668 -26.4567 -26.4557  -6.1464  -6.0365  -6.0365
    -5.9968  -5.9736  -2.9489   4.3035

          k = 0.0000 0.0000 0.5250 (  3587 PWs)   bands (ev):

   -26.4686 -26.4669 -26.4669 -26.4566 -26.4558  -6.1420  -6.0386  -6.0386
    -5.9956  -5.9742  -3.0434   4.5049

          k = 0.0000 0.0000 0.5000 (  3591 PWs)   bands (ev):

   -26.4685 -26.4670 -26.4670 -26.4566 -26.4558  -6.1375  -6.0407  -6.0407
    -5.9944  -5.9747  -3.1350   4.7090

          k = 0.0000 0.0000 0.4750 (  3591 PWs)   bands (ev):

   -26.4685 -26.4671 -26.4671 -26.4566 -26.4559  -6.1328  -6.0428  -6.0428
    -5.9933  -5.9752  -3.2234   4.9154

          k = 0.0000 0.0000 0.4500 (  3583 PWs)   bands (ev):

   -26.4684 -26.4672 -26.4672 -26.4566 -26.4559  -6.1281  -6.0449  -6.0449
    -5.9921  -5.9757  -3.3084   5.1239

          k = 0.0000 0.0000 0.4250 (  3583 PWs)   bands (ev):

   -26.4684 -26.4672 -26.4672 -26.4566 -26.4559  -6.1233  -6.0470  -6.0470
    -5.9910  -5.9762  -3.3897   5.3344

          k = 0.0000 0.0000 0.4000 (  3583 PWs)   bands (ev):

   -26.4684 -26.4673 -26.4673 -26.4565 -26.4560  -6.1185  -6.0490  -6.0490
    -5.9899  -5.9767  -3.4673   5.5468

          k = 0.0000 0.0000 0.3750 (  3591 PWs)   bands (ev):

   -26.4683 -26.4674 -26.4674 -26.4565 -26.4560  -6.1137  -6.0509  -6.0509
    -5.9889  -5.9772  -3.5409   5.7608

          k = 0.0000 0.0000 0.3500 (  3603 PWs)   bands (ev):

   -26.4683 -26.4675 -26.4675 -26.4565 -26.4560  -6.1089  -6.0528  -6.0528
    -5.9879  -5.9777  -3.6105   5.9763

          k = 0.0000 0.0000 0.3250 (  3595 PWs)   bands (ev):

   -26.4683 -26.4675 -26.4675 -26.4565 -26.4561  -6.1042  -6.0546  -6.0546
    -5.9870  -5.9782  -3.6758   6.1934

          k = 0.0000 0.0000 0.3000 (  3607 PWs)   bands (ev):

   -26.4682 -26.4676 -26.4676 -26.4565 -26.4561  -6.0996  -6.0563  -6.0563
    -5.9861  -5.9786  -3.7368   6.4117

          k = 0.0000 0.0000 0.2750 (  3607 PWs)   bands (ev):

   -26.4682 -26.4677 -26.4677 -26.4565 -26.4562  -6.0951  -6.0580  -6.0580
    -5.9853  -5.9790  -3.7934   6.6314

          k = 0.0000 0.0000 0.2500 (  3599 PWs)   bands (ev):

   -26.4682 -26.4677 -26.4677 -26.4564 -26.4562  -6.0908  -6.0595  -6.0595
    -5.9846  -5.9794  -3.8454   6.8522

          k = 0.0000 0.0000 0.2250 (  3599 PWs)   bands (ev):

   -26.4681 -26.4678 -26.4678 -26.4564 -26.4562  -6.0867  -6.0609  -6.0609
    -5.9840  -5.9797  -3.8928   7.0740

          k = 0.0000 0.0000 0.2000 (  3599 PWs)   bands (ev):

   -26.4681 -26.4678 -26.4678 -26.4564 -26.4562  -6.0829  -6.0621  -6.0621
    -5.9834  -5.9801  -3.9354   7.2967

          k = 0.0000 0.0000 0.1750 (  3603 PWs)   bands (ev):

   -26.4681 -26.4679 -26.4679 -26.4564 -26.4563  -6.0794  -6.0632  -6.0632
    -5.9829  -5.9804  -3.9732   7.5200

          k = 0.0000 0.0000 0.1500 (  3603 PWs)   bands (ev):

   -26.4681 -26.4679 -26.4679 -26.4564 -26.4563  -6.0763  -6.0642  -6.0642
    -5.9825  -5.9806  -4.0062   7.7436

          k = 0.0000 0.0000 0.1250 (  3595 PWs)   bands (ev):

   -26.4680 -26.4679 -26.4679 -26.4564 -26.4563  -6.0736  -6.0651  -6.0651
    -5.9821  -5.9808  -4.0342   7.9670

          k = 0.0000 0.0000 0.1000 (  3603 PWs)   bands (ev):

   -26.4680 -26.4680 -26.4680 -26.4564 -26.4563  -6.0713  -6.0658  -6.0658
    -5.9818  -5.9810  -4.0571   8.1893

          k = 0.0000 0.0000 0.0750 (  3603 PWs)   bands (ev):

   -26.4680 -26.4680 -26.4680 -26.4564 -26.4563  -6.0694  -6.0663  -6.0663
    -5.9816  -5.9812  -4.0751   8.4082

          k = 0.0000 0.0000 0.0500 (  3591 PWs)   bands (ev):

   -26.4680 -26.4680 -26.4680 -26.4563 -26.4563  -6.0681  -6.0667  -6.0667
    -5.9815  -5.9813  -4.0879   8.6188

          k = 0.0000 0.0000 0.0250 (  3587 PWs)   bands (ev):

   -26.4680 -26.4680 -26.4680 -26.4563 -26.4563  -6.0673  -6.0670  -6.0670
    -5.9814  -5.9813  -4.0956   8.8036

          k = 0.0000 0.0000 0.0000 (  3527 PWs)   bands (ev):

   -26.4679 -26.4679 -26.4679 -26.4563 -26.4563  -6.0670  -6.0670  -6.0670
    -5.9813  -5.9813  -4.0982   8.8942

          k =-0.0125 0.0125 0.0125 (  3587 PWs)   bands (ev):

   -26.4680 -26.4680 -26.4680 -26.4563 -26.4563  -6.0672  -6.0670  -6.0670
    -5.9813  -5.9813  -4.0963   8.8170

          k =-0.0250 0.0250 0.0250 (  3593 PWs)   bands (ev):

   -26.4680 -26.4680 -26.4680 -26.4563 -26.4563  -6.0677  -6.0669  -6.0669
    -5.9814  -5.9814  -4.0905   8.6498

          k =-0.0375 0.0375 0.0375 (  3599 PWs)   bands (ev):

   -26.4680 -26.4680 -26.4680 -26.4563 -26.4563  -6.0685  -6.0667  -6.0667
    -5.9814  -5.9814  -4.0809   8.4509

          k =-0.0500 0.0500 0.0500 (  3599 PWs)   bands (ev):

   -26.4680 -26.4680 -26.4680 -26.4563 -26.4563  -6.0697  -6.0664  -6.0664
    -5.9814  -5.9814  -4.0674   8.2383

          k =-0.0625 0.0625 0.0625 (  3599 PWs)   bands (ev):

   -26.4680 -26.4680 -26.4680 -26.4563 -26.4563  -6.0711  -6.0660  -6.0660
    -5.9814  -5.9814  -4.0501   8.0180

          k =-0.0750 0.0750 0.0750 (  3599 PWs)   bands (ev):

   -26.4680 -26.4680 -26.4680 -26.4563 -26.4563  -6.0729  -6.0656  -6.0656
    -5.9815  -5.9815  -4.0291   7.7929

          k =-0.0875 0.0875 0.0875 (  3599 PWs)   bands (ev):

   -26.4680 -26.4679 -26.4679 -26.4563 -26.4563  -6.0749  -6.0651  -6.0651
    -5.9815  -5.9815  -4.0044   7.5647

          k =-0.1000 0.1000 0.1000 (  3599 PWs)   bands (ev):

   -26.4680 -26.4679 -26.4679 -26.4563 -26.4563  -6.0772  -6.0645  -6.0645
    -5.9815  -5.9815  -3.9760   7.3346

          k =-0.1125 0.1125 0.1125 (  3599 PWs)   bands (ev):

   -26.4680 -26.4679 -26.4679 -26.4563 -26.4563  -6.0797  -6.0639  -6.0639
    -5.9815  -5.9815  -3.9440   7.1033

          k =-0.1250 0.1250 0.1250 (  3599 PWs)   bands (ev):

   -26.4680 -26.4679 -26.4679 -26.4563 -26.4563  -6.0824  -6.0632  -6.0632
    -5.9816  -5.9816  -3.9084   6.8716

          k =-0.1375 0.1375 0.1375 (  3605 PWs)   bands (ev):

   -26.4680 -26.4678 -26.4678 -26.4563 -26.4563  -6.0852  -6.0624  -6.0624
    -5.9816  -5.9816  -3.8693   6.6400

          k =-0.1500 0.1500 0.1500 (  3605 PWs)   bands (ev):

   -26.4680 -26.4678 -26.4678 -26.4563 -26.4563  -6.0883  -6.0616  -6.0616
    -5.9816  -5.9816  -3.8269   6.4090

          k =-0.1625 0.1625 0.1625 (  3602 PWs)   bands (ev):

   -26.4680 -26.4678 -26.4678 -26.4563 -26.4563  -6.0915  -6.0608  -6.0608
    -5.9816  -5.9816  -3.7811   6.1792

          k =-0.1750 0.1750 0.1750 (  3599 PWs)   bands (ev):

   -26.4679 -26.4677 -26.4677 -26.4563 -26.4563  -6.0948  -6.0600  -6.0600
    -5.9816  -5.9816  -3.7321   5.9510

          k =-0.1875 0.1875 0.1875 (  3590 PWs)   bands (ev):

   -26.4679 -26.4677 -26.4677 -26.4563 -26.4563  -6.0981  -6.0591  -6.0591
    -5.9816  -5.9816  -3.6801   5.7246

          k =-0.2000 0.2000 0.2000 (  3590 PWs)   bands (ev):

   -26.4679 -26.4677 -26.4677 -26.4563 -26.4563  -6.1016  -6.0582  -6.0582
    -5.9815  -5.9815  -3.6250   5.5007

          k =-0.2125 0.2125 0.2125 (  3590 PWs)   bands (ev):

   -26.4679 -26.4676 -26.4676 -26.4562 -26.4562  -6.1050  -6.0573  -6.0573
    -5.9815  -5.9815  -3.5672   5.2794

          k =-0.2250 0.2250 0.2250 (  3596 PWs)   bands (ev):

   -26.4679 -26.4676 -26.4676 -26.4563 -26.4563  -6.1085  -6.0565  -6.0565
    -5.9814  -5.9814  -3.5066   5.0612

          k =-0.2375 0.2375 0.2375 (  3590 PWs)   bands (ev):

   -26.4679 -26.4676 -26.4676 -26.4562 -26.4562  -6.1120  -6.0556  -6.0556
    -5.9813  -5.9813  -3.4436   4.8464

          k =-0.2500 0.2500 0.2500 (  3596 PWs)   bands (ev):

   -26.4679 -26.4675 -26.4675 -26.4562 -26.4562  -6.1154  -6.0547  -6.0547
    -5.9811  -5.9811  -3.3782   4.6355

          k =-0.2625 0.2625 0.2625 (  3602 PWs)   bands (ev):

   -26.4679 -26.4675 -26.4675 -26.4562 -26.4562  -6.1188  -6.0539  -6.0539
    -5.9810  -5.9810  -3.3107   4.4287

          k =-0.2750 0.2750 0.2750 (  3596 PWs)   bands (ev):

   -26.4679 -26.4675 -26.4675 -26.4562 -26.4562  -6.1221  -6.0531  -6.0531
    -5.9808  -5.9808  -3.2414   4.2265

          k =-0.2875 0.2875 0.2875 (  3596 PWs)   bands (ev):

   -26.4678 -26.4674 -26.4674 -26.4562 -26.4562  -6.1254  -6.0523  -6.0523
    -5.9806  -5.9806  -3.1706   4.0293

          k =-0.3000 0.3000 0.3000 (  3590 PWs)   bands (ev):

   -26.4678 -26.4674 -26.4674 -26.4562 -26.4562  -6.1285  -6.0516  -6.0516
    -5.9804  -5.9804  -3.0985   3.8376

          k =-0.3125 0.3125 0.3125 (  3591 PWs)   bands (ev):

   -26.4678 -26.4673 -26.4673 -26.4562 -26.4562  -6.1316  -6.0509  -6.0509
    -5.9802  -5.9802  -3.0255   3.6517

          k =-0.3250 0.3250 0.3250 (  3594 PWs)   bands (ev):

   -26.4678 -26.4673 -26.4673 -26.4562 -26.4562  -6.1345  -6.0502  -6.0502
    -5.9799  -5.9799  -2.9521   3.4723

          k =-0.3375 0.3375 0.3375 (  3600 PWs)   bands (ev):

   -26.4678 -26.4673 -26.4673 -26.4562 -26.4562  -6.1372  -6.0496  -6.0496
    -5.9797  -5.9797  -2.8787   3.2998

          k =-0.3500 0.3500 0.3500 (  3588 PWs)   bands (ev):

   -26.4678 -26.4672 -26.4672 -26.4561 -26.4561  -6.1398  -6.0490  -6.0490
    -5.9794  -5.9794  -2.8058   3.1349

          k =-0.3625 0.3625 0.3625 (  3591 PWs)   bands (ev):

   -26.4678 -26.4672 -26.4672 -26.4561 -26.4561  -6.1423  -6.0485  -6.0485
    -5.9792  -5.9792  -2.7341   2.9783

          k =-0.3750 0.3750 0.3750 (  3591 PWs)   bands (ev):

   -26.4678 -26.4672 -26.4672 -26.4561 -26.4561  -6.1445  -6.0480  -6.0480
    -5.9789  -5.9789  -2.6642   2.8306

          k =-0.3875 0.3875 0.3875 (  3597 PWs)   bands (ev):

   -26.4678 -26.4672 -26.4672 -26.4561 -26.4561  -6.1466  -6.0476  -6.0476
    -5.9786  -5.9786  -2.5969   2.6928

          k =-0.4000 0.4000 0.4000 (  3609 PWs)   bands (ev):

   -26.4678 -26.4671 -26.4671 -26.4561 -26.4561  -6.1485  -6.0472  -6.0472
    -5.9784  -5.9784  -2.5329   2.5657

          k =-0.4125 0.4125 0.4125 (  3597 PWs)   bands (ev):

   -26.4678 -26.4671 -26.4671 -26.4561 -26.4561  -6.1502  -6.0469  -6.0469
    -5.9782  -5.9782  -2.4733   2.4502

          k =-0.4250 0.4250 0.4250 (  3597 PWs)   bands (ev):

   -26.4678 -26.4671 -26.4671 -26.4561 -26.4561  -6.1516  -6.0466  -6.0466
    -5.9780  -5.9780  -2.4189   2.3473

          k =-0.4375 0.4375 0.4375 (  3585 PWs)   bands (ev):

   -26.4678 -26.4671 -26.4671 -26.4561 -26.4561  -6.1529  -6.0464  -6.0464
    -5.9778  -5.9778  -2.3707   2.2579

          k =-0.4500 0.4500 0.4500 (  3585 PWs)   bands (ev):

   -26.4678 -26.4671 -26.4671 -26.4561 -26.4561  -6.1539  -6.0462  -6.0462
    -5.9776  -5.9776  -2.3296   2.1832

          k =-0.4625 0.4625 0.4625 (  3591 PWs)   bands (ev):

   -26.4678 -26.4670 -26.4670 -26.4561 -26.4561  -6.1547  -6.0461  -6.0461
    -5.9775  -5.9775  -2.2966   2.1240

          k =-0.4750 0.4750 0.4750 (  3591 PWs)   bands (ev):

   -26.4678 -26.4670 -26.4670 -26.4561 -26.4561  -6.1553  -6.0460  -6.0460
    -5.9774  -5.9774  -2.2723   2.0810

          k =-0.4875 0.4875 0.4875 (  3597 PWs)   bands (ev):

   -26.4678 -26.4670 -26.4670 -26.4561 -26.4561  -6.1556  -6.0459  -6.0459
    -5.9774  -5.9774  -2.2576   2.0550

          k =-0.5000 0.5000 0.5000 (  3600 PWs)   bands (ev):

   -26.4678 -26.4670 -26.4670 -26.4561 -26.4561  -6.1558  -6.0459  -6.0459
    -5.9773  -5.9773  -2.2526   2.0463

[...]

          k =-0.5000 0.2250 0.7750 (  3586 PWs)   bands (ev):

   -26.4676 -26.4672 -26.4665 -26.4563 -26.4559  -6.1660  -6.0389  -6.0294
    -5.9876  -5.9779  -1.8320   2.2288

          k =-0.5000 0.2125 0.7875 (  3584 PWs)   bands (ev):

   -26.4676 -26.4672 -26.4664 -26.4563 -26.4558  -6.1669  -6.0383  -6.0283
    -5.9882  -5.9779  -1.7991   2.2311

          k =-0.5000 0.2000 0.8000 (  3588 PWs)   bands (ev):

   -26.4677 -26.4672 -26.4664 -26.4564 -26.4558  -6.1677  -6.0378  -6.0273
    -5.9888  -5.9780  -1.7661   2.2311

          k =-0.5000 0.1875 0.8125 (  3584 PWs)   bands (ev):

   -26.4677 -26.4672 -26.4663 -26.4564 -26.4558  -6.1685  -6.0374  -6.0263
    -5.9894  -5.9780  -1.7330   2.2287

          k =-0.5000 0.1750 0.8250 (  3584 PWs)   bands (ev):

   -26.4677 -26.4672 -26.4663 -26.4564 -26.4558  -6.1692  -6.0369  -6.0253
    -5.9899  -5.9780  -1.7003   2.2240

          k =-0.5000 0.1625 0.8375 (  3580 PWs)   bands (ev):

   -26.4677 -26.4673 -26.4662 -26.4564 -26.4558  -6.1700  -6.0364  -6.0244
    -5.9904  -5.9779  -1.6680   2.2169

          k =-0.5000 0.1500 0.8500 (  3576 PWs)   bands (ev):

   -26.4677 -26.4673 -26.4662 -26.4564 -26.4558  -6.1707  -6.0359  -6.0235
    -5.9909  -5.9779  -1.6365   2.2076

          k =-0.5000 0.1375 0.8625 (  3576 PWs)   bands (ev):

   -26.4677 -26.4673 -26.4662 -26.4564 -26.4557  -6.1714  -6.0355  -6.0228
    -5.9913  -5.9779  -1.6060   2.1964

          k =-0.5000 0.1250 0.8750 (  3576 PWs)   bands (ev):

   -26.4677 -26.4673 -26.4661 -26.4564 -26.4557  -6.1721  -6.0351  -6.0221
    -5.9916  -5.9779  -1.5769   2.1836

          k =-0.5000 0.1125 0.8875 (  3582 PWs)   bands (ev):

   -26.4677 -26.4673 -26.4661 -26.4564 -26.4557  -6.1727  -6.0347  -6.0215
    -5.9920  -5.9778  -1.5493   2.1698

          k =-0.5000 0.1000 0.9000 (  3576 PWs)   bands (ev):

   -26.4677 -26.4673 -26.4661 -26.4564 -26.4557  -6.1732  -6.0343  -6.0209
    -5.9923  -5.9778  -1.5236   2.1554

          k =-0.5000 0.0875 0.9125 (  3582 PWs)   bands (ev):

   -26.4677 -26.4673 -26.4661 -26.4564 -26.4557  -6.1737  -6.0340  -6.0204
    -5.9925  -5.9778  -1.5001   2.1409

          k =-0.5000 0.0750 0.9250 (  3582 PWs)   bands (ev):

   -26.4677 -26.4673 -26.4660 -26.4565 -26.4557  -6.1742  -6.0337  -6.0200
    -5.9927  -5.9777  -1.4791   2.1270

          k =-0.5000 0.0625 0.9375 (  3580 PWs)   bands (ev):

   -26.4677 -26.4673 -26.4660 -26.4565 -26.4557  -6.1746  -6.0334  -6.0197
    -5.9929  -5.9777  -1.4607   2.1141

          k =-0.5000 0.0500 0.9500 (  3588 PWs)   bands (ev):

   -26.4677 -26.4673 -26.4660 -26.4565 -26.4557  -6.1749  -6.0332  -6.0194
    -5.9930  -5.9777  -1.4453   2.1028

          k =-0.5000 0.0375 0.9625 (  3582 PWs)   bands (ev):

   -26.4677 -26.4673 -26.4660 -26.4565 -26.4557  -6.1751  -6.0330  -6.0192
    -5.9931  -5.9776  -1.4332   2.0935

          k =-0.5000 0.0250 0.9750 (  3580 PWs)   bands (ev):

   -26.4677 -26.4673 -26.4660 -26.4565 -26.4556  -6.1753  -6.0329  -6.0191
    -5.9932  -5.9776  -1.4243   2.0865

          k =-0.5000 0.0125 0.9875 (  3572 PWs)   bands (ev):

   -26.4677 -26.4673 -26.4660 -26.4565 -26.4556  -6.1754  -6.0328  -6.0190
    -5.9932  -5.9776  -1.4190   2.0823

          k =-0.5000 0.0000 1.0000 (  3552 PWs)   bands (ev):

   -26.4677 -26.4672 -26.4659 -26.4565 -26.4556  -6.1755  -6.0328  -6.0190
    -5.9932  -5.9776  -1.4172   2.0808

          k =-0.5062 0.0000 0.9937 (  3552 PWs)   bands (ev):

   -26.4677 -26.4672 -26.4659 -26.4565 -26.4556  -6.1755  -6.0328  -6.0190
    -5.9933  -5.9776  -1.4174   2.0809

          k =-0.5125 0.0000 0.9875 (  3567 PWs)   bands (ev):

   -26.4677 -26.4672 -26.4660 -26.4565 -26.4556  -6.1755  -6.0328  -6.0190
    -5.9933  -5.9776  -1.4181   2.0812

          k =-0.5188 0.0000 0.9813 (  3581 PWs)   bands (ev):

   -26.4677 -26.4672 -26.4660 -26.4565 -26.4557  -6.1755  -6.0328  -6.0190
    -5.9933  -5.9775  -1.4193   2.0815

          k =-0.5250 0.0000 0.9750 (  3585 PWs)   bands (ev):

   -26.4677 -26.4672 -26.4660 -26.4565 -26.4557  -6.1755  -6.0327  -6.0190
    -5.9934  -5.9775  -1.4208   2.0820

          k =-0.5312 0.0000 0.9688 (  3585 PWs)   bands (ev):

   -26.4677 -26.4672 -26.4660 -26.4565 -26.4557  -6.1755  -6.0327  -6.0191
    -5.9934  -5.9775  -1.4227   2.0824

          k =-0.5375 0.0000 0.9625 (  3591 PWs)   bands (ev):

   -26.4678 -26.4672 -26.4660 -26.4565 -26.4557  -6.1755  -6.0326  -6.0191
    -5.9935  -5.9774  -1.4249   2.0830

          k =-0.5437 0.0000 0.9562 (  3591 PWs)   bands (ev):

   -26.4678 -26.4672 -26.4660 -26.4565 -26.4557  -6.1755  -6.0325  -6.0191
    -5.9935  -5.9773  -1.4275   2.0835

          k =-0.5500 0.0000 0.9500 (  3587 PWs)   bands (ev):

   -26.4678 -26.4672 -26.4660 -26.4565 -26.4557  -6.1756  -6.0325  -6.0191
    -5.9936  -5.9772  -1.4303   2.0840

          k =-0.5563 0.0000 0.9438 (  3592 PWs)   bands (ev):

   -26.4678 -26.4672 -26.4660 -26.4565 -26.4557  -6.1756  -6.0324  -6.0192
    -5.9937  -5.9772  -1.4333   2.0845

          k =-0.5625 0.0000 0.9375 (  3596 PWs)   bands (ev):

   -26.4678 -26.4671 -26.4660 -26.4565 -26.4557  -6.1756  -6.0323  -6.0192
    -5.9938  -5.9771  -1.4365   2.0849

          k =-0.5687 0.0000 0.9312 (  3596 PWs)   bands (ev):

   -26.4679 -26.4671 -26.4660 -26.4565 -26.4557  -6.1757  -6.0322  -6.0193
    -5.9939  -5.9770  -1.4399   2.0853

          k =-0.5750 0.0000 0.9250 (  3592 PWs)   bands (ev):

   -26.4679 -26.4671 -26.4660 -26.4565 -26.4556  -6.1757  -6.0321  -6.0193
    -5.9941  -5.9769  -1.4435   2.0856

          k =-0.5813 0.0000 0.9188 (  3596 PWs)   bands (ev):

   -26.4679 -26.4671 -26.4660 -26.4565 -26.4556  -6.1758  -6.0319  -6.0193
    -5.9942  -5.9768  -1.4471   2.0859

          k =-0.5875 0.0000 0.9125 (  3596 PWs)   bands (ev):

   -26.4679 -26.4670 -26.4660 -26.4565 -26.4556  -6.1758  -6.0318  -6.0194
    -5.9943  -5.9767  -1.4509   2.0861

          k =-0.5938 0.0000 0.9062 (  3592 PWs)   bands (ev):

   -26.4680 -26.4670 -26.4660 -26.4565 -26.4556  -6.1759  -6.0317  -6.0194
    -5.9944  -5.9765  -1.4547   2.0862

          k =-0.6000 0.0000 0.9000 (  3592 PWs)   bands (ev):

   -26.4680 -26.4670 -26.4660 -26.4565 -26.4556  -6.1759  -6.0315  -6.0195
    -5.9946  -5.9764  -1.4586   2.0862

          k =-0.6062 0.0000 0.8937 (  3585 PWs)   bands (ev):

   -26.4680 -26.4670 -26.4660 -26.4565 -26.4556  -6.1760  -6.0314  -6.0196
    -5.9947  -5.9763  -1.4624   2.0862

          k =-0.6125 0.0000 0.8875 (  3585 PWs)   bands (ev):

   -26.4680 -26.4669 -26.4661 -26.4565 -26.4556  -6.1761  -6.0312  -6.0196
    -5.9948  -5.9762  -1.4663   2.0861

          k =-0.6188 0.0000 0.8813 (  3581 PWs)   bands (ev):

   -26.4680 -26.4669 -26.4661 -26.4565 -26.4556  -6.1761  -6.0310  -6.0197
    -5.9950  -5.9761  -1.4702   2.0860

          k =-0.6250 0.0000 0.8750 (  3577 PWs)   bands (ev):

   -26.4680 -26.4669 -26.4661 -26.4565 -26.4556  -6.1762  -6.0309  -6.0197
    -5.9951  -5.9760  -1.4739   2.0858

          k =-0.6312 0.0000 0.8687 (  3579 PWs)   bands (ev):

   -26.4681 -26.4669 -26.4661 -26.4565 -26.4556  -6.1762  -6.0307  -6.0198
    -5.9953  -5.9759  -1.4777   2.0855

          k =-0.6375 0.0000 0.8625 (  3579 PWs)   bands (ev):

   -26.4681 -26.4668 -26.4661 -26.4565 -26.4556  -6.1763  -6.0305  -6.0198
    -5.9954  -5.9757  -1.4813   2.0852

          k =-0.6438 0.0000 0.8563 (  3579 PWs)   bands (ev):

   -26.4681 -26.4668 -26.4661 -26.4565 -26.4556  -6.1764  -6.0304  -6.0199
    -5.9955  -5.9756  -1.4848   2.0848

          k =-0.6500 0.0000 0.8500 (  3577 PWs)   bands (ev):

   -26.4681 -26.4668 -26.4661 -26.4565 -26.4556  -6.1764  -6.0302  -6.0200
    -5.9957  -5.9755  -1.4883   2.0844

          k =-0.6562 0.0000 0.8438 (  3574 PWs)   bands (ev):

   -26.4681 -26.4667 -26.4661 -26.4565 -26.4556  -6.1765  -6.0300  -6.0200
    -5.9958  -5.9754  -1.4915   2.0840

          k =-0.6625 0.0000 0.8375 (  3570 PWs)   bands (ev):

   -26.4681 -26.4667 -26.4661 -26.4565 -26.4556  -6.1766  -6.0299  -6.0201
    -5.9959  -5.9753  -1.4947   2.0836

          k =-0.6687 0.0000 0.8312 (  3570 PWs)   bands (ev):

   -26.4681 -26.4667 -26.4661 -26.4565 -26.4556  -6.1766  -6.0297  -6.0201
    -5.9960  -5.9752  -1.4977   2.0832

          k =-0.6750 0.0000 0.8250 (  3571 PWs)   bands (ev):

   -26.4682 -26.4667 -26.4661 -26.4566 -26.4556  -6.1767  -6.0296  -6.0202
    -5.9962  -5.9752  -1.5005   2.0828

          k =-0.6813 0.0000 0.8188 (  3571 PWs)   bands (ev):

   -26.4682 -26.4667 -26.4662 -26.4566 -26.4556  -6.1767  -6.0294  -6.0202
    -5.9963  -5.9751  -1.5031   2.0823

          k =-0.6875 0.0000 0.8125 (  3569 PWs)   bands (ev):

   -26.4682 -26.4666 -26.4662 -26.4566 -26.4556  -6.1768  -6.0293  -6.0203
    -5.9964  -5.9750  -1.5055   2.0819

          k =-0.6937 0.0000 0.8062 (  3565 PWs)   bands (ev):

   -26.4682 -26.4666 -26.4662 -26.4566 -26.4556  -6.1768  -6.0291  -6.0203
    -5.9965  -5.9749  -1.5077   2.0815

          k =-0.7000 0.0000 0.8000 (  3563 PWs)   bands (ev):

   -26.4682 -26.4666 -26.4662 -26.4566 -26.4556  -6.1769  -6.0290  -6.0204
    -5.9965  -5.9749  -1.5097   2.0812

          k =-0.7063 0.0000 0.7938 (  3567 PWs)   bands (ev):

   -26.4682 -26.4666 -26.4662 -26.4566 -26.4556  -6.1769  -6.0289  -6.0204
    -5.9966  -5.9748  -1.5115   2.0808

          k =-0.7125 0.0000 0.7875 (  3565 PWs)   bands (ev):

   -26.4682 -26.4666 -26.4662 -26.4566 -26.4556  -6.1769  -6.0288  -6.0205
    -5.9967  -5.9748  -1.5131   2.0805

          k =-0.7188 0.0000 0.7812 (  3564 PWs)   bands (ev):

   -26.4682 -26.4665 -26.4662 -26.4566 -26.4556  -6.1770  -6.0287  -6.0205
    -5.9967  -5.9747  -1.5144   2.0802

          k =-0.7250 0.0000 0.7750 (  3566 PWs)   bands (ev):

   -26.4682 -26.4665 -26.4662 -26.4566 -26.4556  -6.1770  -6.0287  -6.0205
    -5.9968  -5.9747  -1.5155   2.0800

          k =-0.7312 0.0000 0.7687 (  3572 PWs)   bands (ev):

   -26.4682 -26.4665 -26.4663 -26.4566 -26.4556  -6.1770  -6.0286  -6.0205
    -5.9968  -5.9747  -1.5164   2.0798

          k =-0.7375 0.0000 0.7625 (  3572 PWs)   bands (ev):

   -26.4682 -26.4665 -26.4663 -26.4566 -26.4556  -6.1770  -6.0286  -6.0206
    -5.9969  -5.9746  -1.5170   2.0797

          k =-0.7438 0.0000 0.7563 (  3568 PWs)   bands (ev):

   -26.4682 -26.4665 -26.4663 -26.4566 -26.4556  -6.1770  -6.0285  -6.0206
    -5.9969  -5.9746  -1.5174   2.0796

          k =-0.7500 0.0000 0.7500 (  3568 PWs)   bands (ev):

   -26.4682 -26.4665 -26.4663 -26.4566 -26.4556  -6.1770  -6.0285  -6.0206
    -5.9969  -5.9746  -1.5175   2.0796

          k =-0.7312 0.0000 0.7312 (  3572 PWs)   bands (ev):

   -26.4682 -26.4666 -26.4663 -26.4565 -26.4556  -6.1755  -6.0299  -6.0217
    -5.9955  -5.9755  -1.5421   2.1116

          k =-0.7125 0.0000 0.7125 (  3580 PWs)   bands (ev):

   -26.4681 -26.4667 -26.4664 -26.4565 -26.4557  -6.1740  -6.0312  -6.0229
    -5.9941  -5.9763  -1.5733   2.1479

          k =-0.6937 0.0000 0.6937 (  3574 PWs)   bands (ev):

   -26.4680 -26.4667 -26.4664 -26.4564 -26.4557  -6.1724  -6.0325  -6.0241
    -5.9926  -5.9771  -1.6116   2.1895

          k =-0.6750 0.0000 0.6750 (  3578 PWs)   bands (ev):

   -26.4679 -26.4668 -26.4665 -26.4564 -26.4558  -6.1708  -6.0337  -6.0254
    -5.9913  -5.9779  -1.6572   2.2372

          k =-0.6562 0.0000 0.6562 (  3578 PWs)   bands (ev):

   -26.4678 -26.4669 -26.4665 -26.4563 -26.4558  -6.1691  -6.0348  -6.0268
    -5.9899  -5.9787  -1.7104   2.2920

          k =-0.6375 0.0000 0.6375 (  3583 PWs)   bands (ev):

   -26.4678 -26.4669 -26.4666 -26.4563 -26.4559  -6.1674  -6.0358  -6.0282
    -5.9886  -5.9794  -1.7708   2.3547

          k =-0.6188 0.0000 0.6188 (  3575 PWs)   bands (ev):

   -26.4677 -26.4670 -26.4666 -26.4563 -26.4559  -6.1657  -6.0368  -6.0296
    -5.9873  -5.9802  -1.8384   2.4261

          k =-0.6000 0.0000 0.6000 (  3571 PWs)   bands (ev):

   -26.4676 -26.4670 -26.4667 -26.4562 -26.4559  -6.1638  -6.0377  -6.0311
    -5.9861  -5.9809  -1.9125   2.5066

          k =-0.5813 0.0000 0.5813 (  3575 PWs)   bands (ev):

   -26.4676 -26.4671 -26.4667 -26.4562 -26.4560  -6.1619  -6.0385  -6.0326
    -5.9850  -5.9815  -1.9926   2.5968

          k =-0.5625 0.0000 0.5625 (  3575 PWs)   bands (ev):

   -26.4675 -26.4671 -26.4668 -26.4562 -26.4560  -6.1598  -6.0393  -6.0341
    -5.9840  -5.9821  -2.0780   2.6967

          k =-0.5437 0.0000 0.5437 (  3575 PWs)   bands (ev):

   -26.4675 -26.4672 -26.4668 -26.4561 -26.4561  -6.1576  -6.0400  -6.0357
    -5.9831  -5.9826  -2.1678   2.8067

          k =-0.5250 0.0000 0.5250 (  3571 PWs)   bands (ev):

   -26.4675 -26.4672 -26.4669 -26.4561 -26.4561  -6.1553  -6.0408  -6.0373
    -5.9831  -5.9823  -2.2612   2.9265

          k =-0.5062 0.0000 0.5062 (  3583 PWs)   bands (ev):

   -26.4676 -26.4672 -26.4670 -26.4561 -26.4561  -6.1529  -6.0415  -6.0389
    -5.9835  -5.9816  -2.3573   3.0561

          k =-0.4875 0.0000 0.4875 (  3579 PWs)   bands (ev):

   -26.4676 -26.4672 -26.4670 -26.4562 -26.4561  -6.1503  -6.0422  -6.0404
    -5.9839  -5.9810  -2.4555   3.1953

          k =-0.4688 0.0000 0.4688 (  3587 PWs)   bands (ev):

   -26.4676 -26.4672 -26.4671 -26.4562 -26.4561  -6.1475  -6.0429  -6.0420
    -5.9842  -5.9805  -2.5548   3.3438

          k =-0.4500 0.0000 0.4500 (  3575 PWs)   bands (ev):

   -26.4677 -26.4672 -26.4671 -26.4562 -26.4560  -6.1446  -6.0436  -6.0436
    -5.9845  -5.9801  -2.6546   3.5015

          k =-0.4312 0.0000 0.4313 (  3579 PWs)   bands (ev):

   -26.4677 -26.4672 -26.4672 -26.4563 -26.4560  -6.1414  -6.0452  -6.0444
    -5.9847  -5.9798  -2.7541   3.6680

          k =-0.4125 0.0000 0.4125 (  3579 PWs)   bands (ev):

   -26.4677 -26.4673 -26.4672 -26.4563 -26.4560  -6.1381  -6.0467  -6.0452
    -5.9848  -5.9796  -2.8529   3.8430

          k =-0.3937 0.0000 0.3937 (  3575 PWs)   bands (ev):

   -26.4678 -26.4673 -26.4672 -26.4563 -26.4560  -6.1346  -6.0483  -6.0461
    -5.9848  -5.9794  -2.9502   4.0262

          k =-0.3750 0.0000 0.3750 (  3581 PWs)   bands (ev):

   -26.4678 -26.4674 -26.4672 -26.4563 -26.4561  -6.1310  -6.0498  -6.0471
    -5.9849  -5.9794  -3.0457   4.2174

          k =-0.3562 0.0000 0.3562 (  3583 PWs)   bands (ev):

   -26.4679 -26.4674 -26.4673 -26.4563 -26.4561  -6.1272  -6.0512  -6.0481
    -5.9848  -5.9794  -3.1388   4.4162

          k =-0.3375 0.0000 0.3375 (  3587 PWs)   bands (ev):

   -26.4679 -26.4675 -26.4673 -26.4563 -26.4561  -6.1233  -6.0527  -6.0492
    -5.9847  -5.9794  -3.2291   4.6224

          k =-0.3187 0.0000 0.3187 (  3593 PWs)   bands (ev):

   -26.4679 -26.4675 -26.4674 -26.4564 -26.4561  -6.1192  -6.0541  -6.0503
    -5.9846  -5.9795  -3.3164   4.8356

          k =-0.3000 0.0000 0.3000 (  3589 PWs)   bands (ev):

   -26.4679 -26.4676 -26.4674 -26.4564 -26.4561  -6.1150  -6.0554  -6.0515
    -5.9844  -5.9796  -3.4001   5.0556

          k =-0.2812 0.0000 0.2812 (  3585 PWs)   bands (ev):

   -26.4679 -26.4676 -26.4674 -26.4564 -26.4561  -6.1108  -6.0567  -6.0528
    -5.9842  -5.9797  -3.4801   5.2820

          k =-0.2625 0.0000 0.2625 (  3593 PWs)   bands (ev):

   -26.4680 -26.4677 -26.4675 -26.4564 -26.4562  -6.1065  -6.0579  -6.0541
    -5.9840  -5.9799  -3.5561   5.5145

          k =-0.2437 0.0000 0.2437 (  3589 PWs)   bands (ev):

   -26.4680 -26.4677 -26.4675 -26.4564 -26.4562  -6.1023  -6.0591  -6.0554
    -5.9838  -5.9800  -3.6279   5.7527

          k =-0.2250 0.0000 0.2250 (  3579 PWs)   bands (ev):

   -26.4680 -26.4677 -26.4676 -26.4563 -26.4562  -6.0980  -6.0602  -6.0568
    -5.9835  -5.9802  -3.6951   5.9963

          k =-0.2062 0.0000 0.2062 (  3587 PWs)   bands (ev):

   -26.4680 -26.4678 -26.4676 -26.4564 -26.4562  -6.0939  -6.0613  -6.0581
    -5.9832  -5.9804  -3.7577   6.2448

          k =-0.1875 0.0000 0.1875 (  3591 PWs)   bands (ev):

   -26.4680 -26.4678 -26.4677 -26.4564 -26.4562  -6.0899  -6.0622  -6.0594
    -5.9830  -5.9805  -3.8154   6.4978

          k =-0.1687 0.0000 0.1687 (  3591 PWs)   bands (ev):

   -26.4680 -26.4679 -26.4678 -26.4564 -26.4562  -6.0860  -6.0631  -6.0607
    -5.9827  -5.9807  -3.8681   6.7547

          k =-0.1500 0.0000 0.1500 (  3591 PWs)   bands (ev):

   -26.4680 -26.4679 -26.4678 -26.4564 -26.4563  -6.0824  -6.0639  -6.0619
    -5.9825  -5.9808  -3.9157   7.0148

          k =-0.1312 0.0000 0.1312 (  3591 PWs)   bands (ev):

   -26.4680 -26.4679 -26.4678 -26.4564 -26.4563  -6.0791  -6.0646  -6.0630
    -5.9822  -5.9809  -3.9580   7.2774

          k =-0.1125 0.0000 0.1125 (  3593 PWs)   bands (ev):

   -26.4680 -26.4679 -26.4679 -26.4564 -26.4563  -6.0761  -6.0653  -6.0640
    -5.9820  -5.9810  -3.9949   7.5414

          k =-0.0938 0.0000 0.0938 (  3593 PWs)   bands (ev):

   -26.4680 -26.4679 -26.4679 -26.4564 -26.4563  -6.0734  -6.0658  -6.0649
    -5.9818  -5.9811  -4.0263   7.8054

          k =-0.0750 0.0000 0.0750 (  3597 PWs)   bands (ev):

   -26.4680 -26.4680 -26.4679 -26.4564 -26.4563  -6.0712  -6.0662  -6.0657
    -5.9816  -5.9812  -4.0521   8.0676

          k =-0.0562 0.0000 0.0562 (  3599 PWs)   bands (ev):

   -26.4680 -26.4680 -26.4680 -26.4564 -26.4563  -6.0694  -6.0666  -6.0663
    -5.9815  -5.9813  -4.0722   8.3249

          k =-0.0375 0.0000 0.0375 (  3595 PWs)   bands (ev):

   -26.4680 -26.4680 -26.4680 -26.4563 -26.4563  -6.0681  -6.0668  -6.0667
    -5.9814  -5.9813  -4.0866   8.5710

          k =-0.0187 0.0000 0.0187 (  3585 PWs)   bands (ev):

   -26.4680 -26.4680 -26.4680 -26.4563 -26.4563  -6.0673  -6.0670  -6.0670
    -5.9814  -5.9813  -4.0953   8.7866

          k = 0.0000 0.0000 0.0000 (  3527 PWs)   bands (ev):

   -26.4679 -26.4679 -26.4679 -26.4563 -26.4563  -6.0670  -6.0670  -6.0670
    -5.9813  -5.9813  -4.0982   8.8942

     Writing all to output data dir ./SCRATCH/gallium_arsenide.save/

     init_run     :      0.22s CPU      0.21s WALL (       1 calls)
     electrons    :     99.56s CPU    100.10s WALL (       1 calls)

     Called by init_run:
     wfcinit      :      0.00s CPU      0.00s WALL (       1 calls)
     wfcinit:atom :      0.14s CPU      0.16s WALL (     201 calls)
     wfcinit:wfcr :      7.09s CPU      7.23s WALL (     201 calls)
     potinit      :      0.02s CPU      0.01s WALL (       1 calls)
     hinit0       :      0.12s CPU      0.13s WALL (       1 calls)

     Called by electrons:
     c_bands      :     99.56s CPU    100.10s WALL (       1 calls)
     v_of_rho     :      0.02s CPU      0.01s WALL (       1 calls)
     v_h          :      0.00s CPU      0.00s WALL (       1 calls)
     v_xc         :      0.02s CPU      0.01s WALL (       1 calls)

     Called by c_bands:
     init_us_2    :      0.19s CPU      0.17s WALL (     201 calls)
     init_us_2:cp :      0.19s CPU      0.17s WALL (     201 calls)
     cegterg      :     91.19s CPU     91.49s WALL (     380 calls)

     Called by sum_band:

     Called by *egterg:
     cdiaghg      :      0.55s CPU      0.62s WALL (    5191 calls)
     cegterg:over :      6.41s CPU      6.27s WALL (    4990 calls)
     cegterg:upda :      2.39s CPU      2.70s WALL (    4990 calls)
     cegterg:last :      5.08s CPU      5.09s WALL (    3405 calls)
     h_psi        :     82.22s CPU     82.15s WALL (    5571 calls)
     g_psi        :      0.36s CPU      0.37s WALL (    4990 calls)

     Called by h_psi:
     h_psi:calbec :      6.05s CPU      6.23s WALL (    5571 calls)
     vloc_psi     :     71.53s CPU     71.27s WALL (    5571 calls)
     add_vuspsi   :      4.59s CPU      4.45s WALL (    5571 calls)

     General routines
     calbec       :      6.05s CPU      6.20s WALL (    5571 calls)
     fft          :      0.02s CPU      0.00s WALL (       4 calls)
     fftw         :     65.77s CPU     65.70s WALL (   90348 calls)
     davcio       :      0.00s CPU      0.07s WALL (     402 calls)


     PWSCF        :   1m39.83s CPU   1m40.57s WALL


   This run was terminated on:  11:52: 6  25May2024            

=------------------------------------------------------------------------------=
   JOB DONE.
=------------------------------------------------------------------------------=
