
     Program PWSCF v.7.2 starts on 25May2024 at 12:40:15 

     This program is part of the open-source Quantum ESPRESSO suite
     for quantum simulation of materials; please cite
         "P. Giannozzi et al., J. Phys.:Condens. Matter 21 395502 (2009);
         "P. Giannozzi et al., J. Phys.:Condens. Matter 29 465901 (2017);
         "P. Giannozzi et al., J. Chem. Phys. 152 154105 (2020);
          URL http://www.quantum-espresso.org", 
     in publications or presentations arising from this work. More details at
     http://www.quantum-espresso.org/quote

     Serial version
     8918 MiB available memory on the printing compute node when the environment starts

     Waiting for input...
     Reading input from standard input

     Current dimensions of program PWSCF are:
     Max number of different atomic species (ntypx) = 10
     Max number of k-points (npk) =  40000
     Max angular momentum in pseudopotentials (lmaxx) =  4

     Atomic positions and unit cell read from directory:
     ./SCRATCH/gallium_arsenide.save/



     G-vector sticks info
     --------------------
     sticks:   dense  smooth     PW     G-vecs:    dense   smooth      PW
     Sum         913     913    283                18149    18149    3071

     Using Slab Decomposition



     bravais-lattice index     =            2
     lattice parameter (alat)  =      10.4818  a.u.
     unit-cell volume          =     287.9059 (a.u.)^3
     number of atoms/cell      =            2
     number of atomic types    =            2
     number of electrons       =         8.00
     number of Kohn-Sham states=           10
     kinetic-energy cutoff     =      60.0000  Ry
     charge density cutoff     =     240.0000  Ry
     Exchange-correlation= SLA  PZ   NOGX NOGC
                           (   1   1   0   0   0   0   0)

     celldm(1)=  10.583136  celldm(2)=   0.000000  celldm(3)=   0.000000
     celldm(4)=   0.000000  celldm(5)=   0.000000  celldm(6)=   0.000000

     crystal axes: (cart. coord. in units of alat)
               a(1) = (  -0.500000   0.000000   0.500000 )  
               a(2) = (   0.000000   0.500000   0.500000 )  
               a(3) = (  -0.500000   0.500000   0.000000 )  

     reciprocal axes: (cart. coord. in units 2 pi/alat)
               b(1) = ( -1.000000 -1.000000  1.000000 )  
               b(2) = (  1.000000  1.000000  1.000000 )  
               b(3) = ( -1.000000  1.000000 -1.000000 )  


     PseudoPot. # 1 for Ga read from file:
     /home/paolo/project_labqsm/pseudopotentials/Ga.pz-bhs.UPF
     MD5 check sum: 09b06f4702dea281feaf053846378b49
     Pseudo is Norm-conserving, Zval =  3.0
     Generated by new atomic code, or converted to UPF format
     Using radial grid of  523 points,  2 beta functions with: 
                l(1) =   0
                l(2) =   1

     PseudoPot. # 2 for As read from file:
     /home/paolo/project_labqsm/pseudopotentials/As.pz-bhs.UPF
     MD5 check sum: d67708448008dff3ec15a9356ed645c7
     Pseudo is Norm-conserving, Zval =  5.0
     Generated by new atomic code, or converted to UPF format
     Using radial grid of  525 points,  2 beta functions with: 
                l(1) =   0
                l(2) =   1

     atomic species   valence    mass     pseudopotential
        Ga             3.00    69.72300     Ga( 1.00)
        As             5.00    74.92200     As( 1.00)

     24 Sym. Ops. (no inversion) found


                                    s                        frac. trans.

      isym =  1     identity                                     

 cryst.   s( 1) = (     1          0          0      )
                  (     0          1          0      )
                  (     0          0          1      )

 cart.    s( 1) = (  1.0000000  0.0000000  0.0000000 )
                  (  0.0000000  1.0000000  0.0000000 )
                  (  0.0000000  0.0000000  1.0000000 )


      isym =  2     180 deg rotation - cart. axis [0,0,1]        

 cryst.   s( 2) = (     0          1         -1      )
                  (     1          0         -1      )
                  (     0          0         -1      )

 cart.    s( 2) = ( -1.0000000  0.0000000  0.0000000 )
                  (  0.0000000 -1.0000000  0.0000000 )
                  (  0.0000000  0.0000000  1.0000000 )


      isym =  3     180 deg rotation - cart. axis [0,1,0]        

 cryst.   s( 3) = (    -1          0          0      )
                  (    -1          0          1      )
                  (    -1          1          0      )

 cart.    s( 3) = ( -1.0000000  0.0000000  0.0000000 )
                  (  0.0000000  1.0000000  0.0000000 )
                  (  0.0000000  0.0000000 -1.0000000 )


      isym =  4     180 deg rotation - cart. axis [1,0,0]        

 cryst.   s( 4) = (     0         -1          1      )
                  (     0         -1          0      )
                  (     1         -1          0      )

 cart.    s( 4) = (  1.0000000  0.0000000  0.0000000 )
                  (  0.0000000 -1.0000000  0.0000000 )
                  (  0.0000000  0.0000000 -1.0000000 )


      isym =  5     120 deg rotation - cart. axis [-1,-1,-1]     

 cryst.   s( 5) = (    -1          0          1      )
                  (    -1          1          0      )
                  (    -1          0          0      )

 cart.    s( 5) = (  0.0000000  1.0000000  0.0000000 )
                  (  0.0000000  0.0000000  1.0000000 )
                  (  1.0000000  0.0000000  0.0000000 )


      isym =  6     120 deg rotation - cart. axis [-1,1,1]       

 cryst.   s( 6) = (     0          1          0      )
                  (     0          0          1      )
                  (     1          0          0      )

 cart.    s( 6) = (  0.0000000 -1.0000000  0.0000000 )
                  (  0.0000000  0.0000000  1.0000000 )
                  ( -1.0000000  0.0000000  0.0000000 )


      isym =  7     120 deg rotation - cart. axis [1,1,-1]       

 cryst.   s( 7) = (     1          0         -1      )
                  (     0          0         -1      )
                  (     0          1         -1      )

 cart.    s( 7) = (  0.0000000  1.0000000  0.0000000 )
                  (  0.0000000  0.0000000 -1.0000000 )
                  ( -1.0000000  0.0000000  0.0000000 )


      isym =  8     120 deg rotation - cart. axis [1,-1,1]       

 cryst.   s( 8) = (     0         -1          0      )
                  (     1         -1          0      )
                  (     0         -1          1      )

 cart.    s( 8) = (  0.0000000 -1.0000000  0.0000000 )
                  (  0.0000000  0.0000000 -1.0000000 )
                  (  1.0000000  0.0000000  0.0000000 )


      isym =  9     120 deg rotation - cart. axis [1,1,1]        

 cryst.   s( 9) = (     0          0         -1      )
                  (     0          1         -1      )
                  (     1          0         -1      )

 cart.    s( 9) = (  0.0000000  0.0000000  1.0000000 )
                  (  1.0000000  0.0000000  0.0000000 )
                  (  0.0000000  1.0000000  0.0000000 )


      isym = 10     120 deg rotation - cart. axis [-1,1,-1]      

 cryst.   s(10) = (    -1          1          0      )
                  (    -1          0          0      )
                  (    -1          0          1      )

 cart.    s(10) = (  0.0000000  0.0000000  1.0000000 )
                  ( -1.0000000  0.0000000  0.0000000 )
                  (  0.0000000 -1.0000000  0.0000000 )


      isym = 11     120 deg rotation - cart. axis [1,-1,-1]      

 cryst.   s(11) = (     0          0          1      )
                  (     1          0          0      )
                  (     0          1          0      )

 cart.    s(11) = (  0.0000000  0.0000000 -1.0000000 )
                  ( -1.0000000  0.0000000  0.0000000 )
                  (  0.0000000  1.0000000  0.0000000 )


      isym = 12     120 deg rotation - cart. axis [-1,-1,1]      

 cryst.   s(12) = (     1         -1          0      )
                  (     0         -1          1      )
                  (     0         -1          0      )

 cart.    s(12) = (  0.0000000  0.0000000 -1.0000000 )
                  (  1.0000000  0.0000000  0.0000000 )
                  (  0.0000000 -1.0000000  0.0000000 )


      isym = 13     inv. 180 deg rotation - cart. axis [1,1,0]   

 cryst.   s(13) = (     0          1          0      )
                  (     1          0          0      )
                  (     0          0          1      )

 cart.    s(13) = (  0.0000000 -1.0000000  0.0000000 )
                  ( -1.0000000  0.0000000  0.0000000 )
                  (  0.0000000  0.0000000  1.0000000 )


      isym = 14     inv. 180 deg rotation - cart. axis [1,-1,0]  

 cryst.   s(14) = (     1          0         -1      )
                  (     0          1         -1      )
                  (     0          0         -1      )

 cart.    s(14) = (  0.0000000  1.0000000  0.0000000 )
                  (  1.0000000  0.0000000  0.0000000 )
                  (  0.0000000  0.0000000  1.0000000 )


      isym = 15     inv.  90 deg rotation - cart. axis [0,0,-1]  

 cryst.   s(15) = (     0         -1          0      )
                  (     0         -1          1      )
                  (     1         -1          0      )

 cart.    s(15) = (  0.0000000 -1.0000000  0.0000000 )
                  (  1.0000000  0.0000000  0.0000000 )
                  (  0.0000000  0.0000000 -1.0000000 )


      isym = 16     inv.  90 deg rotation - cart. axis [0,0,1]   

 cryst.   s(16) = (    -1          0          1      )
                  (    -1          0          0      )
                  (    -1          1          0      )

 cart.    s(16) = (  0.0000000  1.0000000  0.0000000 )
                  ( -1.0000000  0.0000000  0.0000000 )
                  (  0.0000000  0.0000000 -1.0000000 )


      isym = 17     inv. 180 deg rotation - cart. axis [1,0,1]   

 cryst.   s(17) = (     1          0          0      )
                  (     0          0          1      )
                  (     0          1          0      )

 cart.    s(17) = (  0.0000000  0.0000000 -1.0000000 )
                  (  0.0000000  1.0000000  0.0000000 )
                  ( -1.0000000  0.0000000  0.0000000 )


      isym = 18     inv. 180 deg rotation - cart. axis [-1,0,1]  

 cryst.   s(18) = (    -1          0          0      )
                  (    -1          1          0      )
                  (    -1          0          1      )

 cart.    s(18) = (  0.0000000  0.0000000  1.0000000 )
                  (  0.0000000  1.0000000  0.0000000 )
                  (  1.0000000  0.0000000  0.0000000 )


      isym = 19     inv.  90 deg rotation - cart. axis [0,1,0]   

 cryst.   s(19) = (     0         -1          1      )
                  (     1         -1          0      )
                  (     0         -1          0      )

 cart.    s(19) = (  0.0000000  0.0000000 -1.0000000 )
                  (  0.0000000 -1.0000000  0.0000000 )
                  (  1.0000000  0.0000000  0.0000000 )


      isym = 20     inv.  90 deg rotation - cart. axis [0,-1,0]  

 cryst.   s(20) = (     0          1         -1      )
                  (     0          0         -1      )
                  (     1          0         -1      )

 cart.    s(20) = (  0.0000000  0.0000000  1.0000000 )
                  (  0.0000000 -1.0000000  0.0000000 )
                  ( -1.0000000  0.0000000  0.0000000 )


      isym = 21     inv. 180 deg rotation - cart. axis [0,1,1]   

 cryst.   s(21) = (     1         -1          0      )
                  (     0         -1          0      )
                  (     0         -1          1      )

 cart.    s(21) = (  1.0000000  0.0000000  0.0000000 )
                  (  0.0000000  0.0000000 -1.0000000 )
                  (  0.0000000 -1.0000000  0.0000000 )


      isym = 22     inv. 180 deg rotation - cart. axis [0,1,-1]  

 cryst.   s(22) = (     0          0          1      )
                  (     0          1          0      )
                  (     1          0          0      )

 cart.    s(22) = (  1.0000000  0.0000000  0.0000000 )
                  (  0.0000000  0.0000000  1.0000000 )
                  (  0.0000000  1.0000000  0.0000000 )


      isym = 23     inv.  90 deg rotation - cart. axis [-1,0,0]  

 cryst.   s(23) = (     0          0         -1      )
                  (     1          0         -1      )
                  (     0          1         -1      )

 cart.    s(23) = ( -1.0000000  0.0000000  0.0000000 )
                  (  0.0000000  0.0000000 -1.0000000 )
                  (  0.0000000  1.0000000  0.0000000 )


      isym = 24     inv.  90 deg rotation - cart. axis [1,0,0]   

 cryst.   s(24) = (    -1          1          0      )
                  (    -1          0          1      )
                  (    -1          0          0      )

 cart.    s(24) = ( -1.0000000  0.0000000  0.0000000 )
                  (  0.0000000  0.0000000  1.0000000 )
                  (  0.0000000 -1.0000000  0.0000000 )


     point group T_d (-43m) 
     there are  5 classes
     the character table:

       E     8C3   3C2   6S4   6s_d 
A_1    1.00  1.00  1.00  1.00  1.00
A_2    1.00  1.00  1.00 -1.00 -1.00
E      2.00 -1.00  2.00  0.00  0.00
T_1    3.00  0.00 -1.00  1.00 -1.00
T_2    3.00  0.00 -1.00 -1.00  1.00

     the symmetry operations in each class and the name of the first element:

     E        1
          identity                                               
     8C3      5    7    8    6   12    9   10   11
          120 deg rotation - cart. axis [-1,-1,-1]               
     3C2      2    3    4
          180 deg rotation - cart. axis [0,0,1]                  
     6S4     15   16   20   19   23   24
          inv.  90 deg rotation - cart. axis [0,0,-1]            
     6s_d    13   14   17   18   21   22
          inv. 180 deg rotation - cart. axis [1,1,0]             

   Cartesian axes

     site n.     atom                  positions (alat units)
         1           Ga  tau(   1) = (   0.0000000   0.0000000   0.0000000  )
         2           As  tau(   2) = (   0.2500000   0.2500000   0.2500000  )

   Crystallographic axes

     site n.     atom                  positions (cryst. coord.)
         1           Ga  tau(   1) = (  0.0000000  0.0000000  0.0000000  )
         2           As  tau(   2) = ( -0.2500000  0.7500000 -0.2500000  )

     number of k points=   256
                       cart. coord. in units 2pi/alat
        k(    1) = (   0.0000000   0.0000000   0.0000000), wk =   0.0002500
        k(    2) = (  -0.0500000   0.0500000  -0.0500000), wk =   0.0020000
        k(    3) = (  -0.1000000   0.1000000  -0.1000000), wk =   0.0020000
        k(    4) = (  -0.1500000   0.1500000  -0.1500000), wk =   0.0020000
        k(    5) = (  -0.2000000   0.2000000  -0.2000000), wk =   0.0020000
        k(    6) = (  -0.2500000   0.2500000  -0.2500000), wk =   0.0020000
        k(    7) = (  -0.3000000   0.3000000  -0.3000000), wk =   0.0020000
        k(    8) = (  -0.3500000   0.3500000  -0.3500000), wk =   0.0020000
        k(    9) = (  -0.4000000   0.4000000  -0.4000000), wk =   0.0020000
        k(   10) = (  -0.4500000   0.4500000  -0.4500000), wk =   0.0020000
        k(   11) = (   0.5000000  -0.5000000   0.5000000), wk =   0.0010000
        k(   12) = (   0.0000000   0.1000000   0.0000000), wk =   0.0015000
        k(   13) = (  -0.0500000   0.1500000  -0.0500000), wk =   0.0060000
        k(   14) = (  -0.1000000   0.2000000  -0.1000000), wk =   0.0060000
        k(   15) = (  -0.1500000   0.2500000  -0.1500000), wk =   0.0060000
        k(   16) = (  -0.2000000   0.3000000  -0.2000000), wk =   0.0060000
        k(   17) = (  -0.2500000   0.3500000  -0.2500000), wk =   0.0060000
        k(   18) = (  -0.3000000   0.4000000  -0.3000000), wk =   0.0060000
        k(   19) = (  -0.3500000   0.4500000  -0.3500000), wk =   0.0060000
        k(   20) = (  -0.4000000   0.5000000  -0.4000000), wk =   0.0060000
        k(   21) = (   0.5500000  -0.4500000   0.5500000), wk =   0.0060000
        k(   22) = (   0.5000000  -0.4000000   0.5000000), wk =   0.0060000
        k(   23) = (   0.4500000  -0.3500000   0.4500000), wk =   0.0060000
        k(   24) = (   0.4000000  -0.3000000   0.4000000), wk =   0.0060000
        k(   25) = (   0.3500000  -0.2500000   0.3500000), wk =   0.0060000
        k(   26) = (   0.3000000  -0.2000000   0.3000000), wk =   0.0060000
        k(   27) = (   0.2500000  -0.1500000   0.2500000), wk =   0.0060000
        k(   28) = (   0.2000000  -0.1000000   0.2000000), wk =   0.0060000
        k(   29) = (   0.1500000  -0.0500000   0.1500000), wk =   0.0060000
        k(   30) = (   0.1000000  -0.0000000   0.1000000), wk =   0.0030000
        k(   31) = (   0.0000000   0.2000000   0.0000000), wk =   0.0015000
        k(   32) = (  -0.0500000   0.2500000  -0.0500000), wk =   0.0060000
        k(   33) = (  -0.1000000   0.3000000  -0.1000000), wk =   0.0060000
        k(   34) = (  -0.1500000   0.3500000  -0.1500000), wk =   0.0060000
        k(   35) = (  -0.2000000   0.4000000  -0.2000000), wk =   0.0060000
        k(   36) = (  -0.2500000   0.4500000  -0.2500000), wk =   0.0060000
        k(   37) = (  -0.3000000   0.5000000  -0.3000000), wk =   0.0060000
        k(   38) = (  -0.3500000   0.5500000  -0.3500000), wk =   0.0060000
        k(   39) = (   0.6000000  -0.4000000   0.6000000), wk =   0.0060000
        k(   40) = (   0.5500000  -0.3500000   0.5500000), wk =   0.0060000
        k(   41) = (   0.5000000  -0.3000000   0.5000000), wk =   0.0060000
        k(   42) = (   0.4500000  -0.2500000   0.4500000), wk =   0.0060000
        k(   43) = (   0.4000000  -0.2000000   0.4000000), wk =   0.0060000
        k(   44) = (   0.3500000  -0.1500000   0.3500000), wk =   0.0060000
        k(   45) = (   0.3000000  -0.1000000   0.3000000), wk =   0.0060000
        k(   46) = (   0.2500000  -0.0500000   0.2500000), wk =   0.0060000
        k(   47) = (   0.2000000   0.0000000   0.2000000), wk =   0.0030000
        k(   48) = (   0.0000000   0.3000000   0.0000000), wk =   0.0015000
        k(   49) = (  -0.0500000   0.3500000  -0.0500000), wk =   0.0060000
        k(   50) = (  -0.1000000   0.4000000  -0.1000000), wk =   0.0060000
        k(   51) = (  -0.1500000   0.4500000  -0.1500000), wk =   0.0060000
        k(   52) = (  -0.2000000   0.5000000  -0.2000000), wk =   0.0060000
        k(   53) = (  -0.2500000   0.5500000  -0.2500000), wk =   0.0060000
        k(   54) = (  -0.3000000   0.6000000  -0.3000000), wk =   0.0060000
        k(   55) = (   0.6500000  -0.3500000   0.6500000), wk =   0.0060000
        k(   56) = (   0.6000000  -0.3000000   0.6000000), wk =   0.0060000
        k(   57) = (   0.5500000  -0.2500000   0.5500000), wk =   0.0060000
        k(   58) = (   0.5000000  -0.2000000   0.5000000), wk =   0.0060000
        k(   59) = (   0.4500000  -0.1500000   0.4500000), wk =   0.0060000
        k(   60) = (   0.4000000  -0.1000000   0.4000000), wk =   0.0060000
        k(   61) = (   0.3500000  -0.0500000   0.3500000), wk =   0.0060000
        k(   62) = (   0.3000000  -0.0000000   0.3000000), wk =   0.0030000
        k(   63) = (   0.0000000   0.4000000   0.0000000), wk =   0.0015000
        k(   64) = (  -0.0500000   0.4500000  -0.0500000), wk =   0.0060000
        k(   65) = (  -0.1000000   0.5000000  -0.1000000), wk =   0.0060000
        k(   66) = (  -0.1500000   0.5500000  -0.1500000), wk =   0.0060000
        k(   67) = (  -0.2000000   0.6000000  -0.2000000), wk =   0.0060000
        k(   68) = (  -0.2500000   0.6500000  -0.2500000), wk =   0.0060000
        k(   69) = (   0.7000000  -0.3000000   0.7000000), wk =   0.0060000
        k(   70) = (   0.6500000  -0.2500000   0.6500000), wk =   0.0060000
        k(   71) = (   0.6000000  -0.2000000   0.6000000), wk =   0.0060000
        k(   72) = (   0.5500000  -0.1500000   0.5500000), wk =   0.0060000
        k(   73) = (   0.5000000  -0.1000000   0.5000000), wk =   0.0060000
        k(   74) = (   0.4500000  -0.0500000   0.4500000), wk =   0.0060000
        k(   75) = (   0.4000000   0.0000000   0.4000000), wk =   0.0030000
        k(   76) = (   0.0000000   0.5000000   0.0000000), wk =   0.0015000
        k(   77) = (  -0.0500000   0.5500000  -0.0500000), wk =   0.0060000
        k(   78) = (  -0.1000000   0.6000000  -0.1000000), wk =   0.0060000
        k(   79) = (  -0.1500000   0.6500000  -0.1500000), wk =   0.0060000
        k(   80) = (  -0.2000000   0.7000000  -0.2000000), wk =   0.0060000
        k(   81) = (   0.7500000  -0.2500000   0.7500000), wk =   0.0060000
        k(   82) = (   0.7000000  -0.2000000   0.7000000), wk =   0.0060000
        k(   83) = (   0.6500000  -0.1500000   0.6500000), wk =   0.0060000
        k(   84) = (   0.6000000  -0.1000000   0.6000000), wk =   0.0060000
        k(   85) = (   0.5500000  -0.0500000   0.5500000), wk =   0.0060000
        k(   86) = (   0.5000000   0.0000000   0.5000000), wk =   0.0030000
        k(   87) = (   0.0000000   0.6000000   0.0000000), wk =   0.0015000
        k(   88) = (  -0.0500000   0.6500000  -0.0500000), wk =   0.0060000
        k(   89) = (  -0.1000000   0.7000000  -0.1000000), wk =   0.0060000
        k(   90) = (  -0.1500000   0.7500000  -0.1500000), wk =   0.0060000
        k(   91) = (   0.8000000  -0.2000000   0.8000000), wk =   0.0060000
        k(   92) = (   0.7500000  -0.1500000   0.7500000), wk =   0.0060000
        k(   93) = (   0.7000000  -0.1000000   0.7000000), wk =   0.0060000
        k(   94) = (   0.6500000  -0.0500000   0.6500000), wk =   0.0060000
        k(   95) = (   0.6000000  -0.0000000   0.6000000), wk =   0.0030000
        k(   96) = (   0.0000000   0.7000000   0.0000000), wk =   0.0015000
        k(   97) = (  -0.0500000   0.7500000  -0.0500000), wk =   0.0060000
        k(   98) = (  -0.1000000   0.8000000  -0.1000000), wk =   0.0060000
        k(   99) = (   0.8500000  -0.1500000   0.8500000), wk =   0.0060000
        k(  100) = (   0.8000000  -0.1000000   0.8000000), wk =   0.0060000
        k(  101) = (   0.7500000  -0.0500000   0.7500000), wk =   0.0060000
        k(  102) = (   0.7000000   0.0000000   0.7000000), wk =   0.0030000
        k(  103) = (   0.0000000   0.8000000   0.0000000), wk =   0.0015000
        k(  104) = (  -0.0500000   0.8500000  -0.0500000), wk =   0.0060000
        k(  105) = (   0.9000000  -0.1000000   0.9000000), wk =   0.0060000
        k(  106) = (   0.8500000  -0.0500000   0.8500000), wk =   0.0060000
        k(  107) = (   0.8000000   0.0000000   0.8000000), wk =   0.0030000
        k(  108) = (   0.0000000   0.9000000   0.0000000), wk =   0.0015000
        k(  109) = (   0.9500000  -0.0500000   0.9500000), wk =   0.0060000
        k(  110) = (   0.9000000   0.0000000   0.9000000), wk =   0.0030000
        k(  111) = (   0.0000000  -1.0000000   0.0000000), wk =   0.0007500
        k(  112) = (  -0.1000000   0.2000000   0.0000000), wk =   0.0060000
        k(  113) = (  -0.1500000   0.2500000  -0.0500000), wk =   0.0120000
        k(  114) = (  -0.2000000   0.3000000  -0.1000000), wk =   0.0120000
        k(  115) = (  -0.2500000   0.3500000  -0.1500000), wk =   0.0120000
        k(  116) = (  -0.3000000   0.4000000  -0.2000000), wk =   0.0120000
        k(  117) = (  -0.3500000   0.4500000  -0.2500000), wk =   0.0120000
        k(  118) = (  -0.4000000   0.5000000  -0.3000000), wk =   0.0120000
        k(  119) = (   0.5500000  -0.4500000   0.6500000), wk =   0.0120000
        k(  120) = (   0.5000000  -0.4000000   0.6000000), wk =   0.0060000
        k(  121) = (  -0.1000000   0.3000000   0.0000000), wk =   0.0060000
        k(  122) = (  -0.1500000   0.3500000  -0.0500000), wk =   0.0120000
        k(  123) = (  -0.2000000   0.4000000  -0.1000000), wk =   0.0120000
        k(  124) = (  -0.2500000   0.4500000  -0.1500000), wk =   0.0120000
        k(  125) = (  -0.3000000   0.5000000  -0.2000000), wk =   0.0120000
        k(  126) = (  -0.3500000   0.5500000  -0.2500000), wk =   0.0120000
        k(  127) = (   0.6000000  -0.4000000   0.7000000), wk =   0.0120000
        k(  128) = (   0.5500000  -0.3500000   0.6500000), wk =   0.0120000
        k(  129) = (   0.5000000  -0.3000000   0.6000000), wk =   0.0120000
        k(  130) = (   0.4500000  -0.2500000   0.5500000), wk =   0.0120000
        k(  131) = (   0.4000000  -0.2000000   0.5000000), wk =   0.0120000
        k(  132) = (   0.3500000  -0.1500000   0.4500000), wk =   0.0120000
        k(  133) = (   0.3000000  -0.1000000   0.4000000), wk =   0.0120000
        k(  134) = (   0.2500000  -0.0500000   0.3500000), wk =   0.0120000
        k(  135) = (   0.2000000   0.0000000   0.3000000), wk =   0.0060000
        k(  136) = (  -0.1000000   0.4000000   0.0000000), wk =   0.0060000
        k(  137) = (  -0.1500000   0.4500000  -0.0500000), wk =   0.0120000
        k(  138) = (  -0.2000000   0.5000000  -0.1000000), wk =   0.0120000
        k(  139) = (  -0.2500000   0.5500000  -0.1500000), wk =   0.0120000
        k(  140) = (  -0.3000000   0.6000000  -0.2000000), wk =   0.0120000
        k(  141) = (   0.6500000  -0.3500000   0.7500000), wk =   0.0120000
        k(  142) = (   0.6000000  -0.3000000   0.7000000), wk =   0.0120000
        k(  143) = (   0.5500000  -0.2500000   0.6500000), wk =   0.0120000
        k(  144) = (   0.5000000  -0.2000000   0.6000000), wk =   0.0120000
        k(  145) = (   0.4500000  -0.1500000   0.5500000), wk =   0.0120000
        k(  146) = (   0.4000000  -0.1000000   0.5000000), wk =   0.0120000
        k(  147) = (   0.3500000  -0.0500000   0.4500000), wk =   0.0120000
        k(  148) = (   0.3000000   0.0000000   0.4000000), wk =   0.0060000
        k(  149) = (  -0.1000000   0.5000000   0.0000000), wk =   0.0060000
        k(  150) = (  -0.1500000   0.5500000  -0.0500000), wk =   0.0120000
        k(  151) = (  -0.2000000   0.6000000  -0.1000000), wk =   0.0120000
        k(  152) = (  -0.2500000   0.6500000  -0.1500000), wk =   0.0120000
        k(  153) = (   0.7000000  -0.3000000   0.8000000), wk =   0.0120000
        k(  154) = (   0.6500000  -0.2500000   0.7500000), wk =   0.0120000
        k(  155) = (   0.6000000  -0.2000000   0.7000000), wk =   0.0120000
        k(  156) = (   0.5500000  -0.1500000   0.6500000), wk =   0.0120000
        k(  157) = (   0.5000000  -0.1000000   0.6000000), wk =   0.0120000
        k(  158) = (   0.4500000  -0.0500000   0.5500000), wk =   0.0120000
        k(  159) = (   0.4000000   0.0000000   0.5000000), wk =   0.0060000
        k(  160) = (  -0.1000000   0.6000000   0.0000000), wk =   0.0060000
        k(  161) = (  -0.1500000   0.6500000  -0.0500000), wk =   0.0120000
        k(  162) = (  -0.2000000   0.7000000  -0.1000000), wk =   0.0120000
        k(  163) = (   0.7500000  -0.2500000   0.8500000), wk =   0.0120000
        k(  164) = (   0.7000000  -0.2000000   0.8000000), wk =   0.0120000
        k(  165) = (   0.6500000  -0.1500000   0.7500000), wk =   0.0120000
        k(  166) = (   0.6000000  -0.1000000   0.7000000), wk =   0.0120000
        k(  167) = (   0.5500000  -0.0500000   0.6500000), wk =   0.0120000
        k(  168) = (   0.5000000   0.0000000   0.6000000), wk =   0.0060000
        k(  169) = (  -0.1000000   0.7000000  -0.0000000), wk =   0.0060000
        k(  170) = (  -0.1500000   0.7500000  -0.0500000), wk =   0.0120000
        k(  171) = (   0.8000000  -0.2000000   0.9000000), wk =   0.0120000
        k(  172) = (   0.7500000  -0.1500000   0.8500000), wk =   0.0120000
        k(  173) = (   0.7000000  -0.1000000   0.8000000), wk =   0.0120000
        k(  174) = (   0.6500000  -0.0500000   0.7500000), wk =   0.0120000
        k(  175) = (   0.6000000  -0.0000000   0.7000000), wk =   0.0060000
        k(  176) = (  -0.1000000   0.8000000   0.0000000), wk =   0.0060000
        k(  177) = (   0.8500000  -0.1500000   0.9500000), wk =   0.0120000
        k(  178) = (   0.8000000  -0.1000000   0.9000000), wk =   0.0120000
        k(  179) = (   0.7500000  -0.0500000   0.8500000), wk =   0.0120000
        k(  180) = (   0.7000000   0.0000000   0.8000000), wk =   0.0060000
        k(  181) = (   0.9000000  -0.1000000   1.0000000), wk =   0.0060000
        k(  182) = (   0.8500000  -0.0500000   0.9500000), wk =   0.0120000
        k(  183) = (   0.8000000   0.0000000   0.9000000), wk =   0.0060000
        k(  184) = (  -0.1000000  -1.0000000  -0.0000000), wk =   0.0030000
        k(  185) = (  -0.2000000   0.4000000   0.0000000), wk =   0.0060000
        k(  186) = (  -0.2500000   0.4500000  -0.0500000), wk =   0.0120000
        k(  187) = (  -0.3000000   0.5000000  -0.1000000), wk =   0.0120000
        k(  188) = (  -0.3500000   0.5500000  -0.1500000), wk =   0.0120000
        k(  189) = (   0.6000000  -0.4000000   0.8000000), wk =   0.0120000
        k(  190) = (   0.5500000  -0.3500000   0.7500000), wk =   0.0120000
        k(  191) = (   0.5000000  -0.3000000   0.7000000), wk =   0.0060000
        k(  192) = (  -0.2000000   0.5000000   0.0000000), wk =   0.0060000
        k(  193) = (  -0.2500000   0.5500000  -0.0500000), wk =   0.0120000
        k(  194) = (  -0.3000000   0.6000000  -0.1000000), wk =   0.0120000
        k(  195) = (   0.6500000  -0.3500000   0.8500000), wk =   0.0120000
        k(  196) = (   0.6000000  -0.3000000   0.8000000), wk =   0.0120000
        k(  197) = (   0.5500000  -0.2500000   0.7500000), wk =   0.0120000
        k(  198) = (   0.5000000  -0.2000000   0.7000000), wk =   0.0120000
        k(  199) = (   0.4500000  -0.1500000   0.6500000), wk =   0.0120000
        k(  200) = (   0.4000000  -0.1000000   0.6000000), wk =   0.0120000
        k(  201) = (   0.3500000  -0.0500000   0.5500000), wk =   0.0120000
        k(  202) = (   0.3000000  -0.0000000   0.5000000), wk =   0.0060000
        k(  203) = (  -0.2000000   0.6000000   0.0000000), wk =   0.0060000
        k(  204) = (  -0.2500000   0.6500000  -0.0500000), wk =   0.0120000
        k(  205) = (   0.7000000  -0.3000000   0.9000000), wk =   0.0120000
        k(  206) = (   0.6500000  -0.2500000   0.8500000), wk =   0.0120000
        k(  207) = (   0.6000000  -0.2000000   0.8000000), wk =   0.0120000
        k(  208) = (   0.5500000  -0.1500000   0.7500000), wk =   0.0120000
        k(  209) = (   0.5000000  -0.1000000   0.7000000), wk =   0.0120000
        k(  210) = (   0.4500000  -0.0500000   0.6500000), wk =   0.0120000
        k(  211) = (   0.4000000   0.0000000   0.6000000), wk =   0.0060000
        k(  212) = (  -0.2000000   0.7000000  -0.0000000), wk =   0.0060000
        k(  213) = (   0.7500000  -0.2500000   0.9500000), wk =   0.0120000
        k(  214) = (   0.7000000  -0.2000000   0.9000000), wk =   0.0120000
        k(  215) = (   0.6500000  -0.1500000   0.8500000), wk =   0.0120000
        k(  216) = (   0.6000000  -0.1000000   0.8000000), wk =   0.0120000
        k(  217) = (   0.5500000  -0.0500000   0.7500000), wk =   0.0120000
        k(  218) = (   0.5000000  -0.0000000   0.7000000), wk =   0.0060000
        k(  219) = (   0.8000000  -0.2000000   1.0000000), wk =   0.0060000
        k(  220) = (   0.7500000  -0.1500000   0.9500000), wk =   0.0120000
        k(  221) = (   0.7000000  -0.1000000   0.9000000), wk =   0.0120000
        k(  222) = (   0.6500000  -0.0500000   0.8500000), wk =   0.0120000
        k(  223) = (   0.6000000   0.0000000   0.8000000), wk =   0.0060000
        k(  224) = (   0.8000000  -0.1000000   1.0000000), wk =   0.0060000
        k(  225) = (   0.7500000  -0.0500000   0.9500000), wk =   0.0120000
        k(  226) = (   0.7000000   0.0000000   0.9000000), wk =   0.0060000
        k(  227) = (  -0.2000000  -1.0000000   0.0000000), wk =   0.0030000
        k(  228) = (  -0.3000000   0.6000000  -0.0000000), wk =   0.0060000
        k(  229) = (   0.6500000  -0.3500000   0.9500000), wk =   0.0120000
        k(  230) = (   0.6000000  -0.3000000   0.9000000), wk =   0.0120000
        k(  231) = (   0.5500000  -0.2500000   0.8500000), wk =   0.0120000
        k(  232) = (   0.5000000  -0.2000000   0.8000000), wk =   0.0060000
        k(  233) = (   0.7000000  -0.3000000   1.0000000), wk =   0.0060000
        k(  234) = (   0.6500000  -0.2500000   0.9500000), wk =   0.0120000
        k(  235) = (   0.6000000  -0.2000000   0.9000000), wk =   0.0120000
        k(  236) = (   0.5500000  -0.1500000   0.8500000), wk =   0.0120000
        k(  237) = (   0.5000000  -0.1000000   0.8000000), wk =   0.0120000
        k(  238) = (   0.4500000  -0.0500000   0.7500000), wk =   0.0120000
        k(  239) = (   0.4000000   0.0000000   0.7000000), wk =   0.0060000
        k(  240) = (   0.7000000  -0.2000000   1.0000000), wk =   0.0060000
        k(  241) = (   0.6500000  -0.1500000   0.9500000), wk =   0.0120000
        k(  242) = (   0.6000000  -0.1000000   0.9000000), wk =   0.0120000
        k(  243) = (   0.5500000  -0.0500000   0.8500000), wk =   0.0120000
        k(  244) = (   0.5000000   0.0000000   0.8000000), wk =   0.0060000
        k(  245) = (   0.7000000  -0.1000000   1.0000000), wk =   0.0060000
        k(  246) = (   0.6500000  -0.0500000   0.9500000), wk =   0.0120000
        k(  247) = (   0.6000000   0.0000000   0.9000000), wk =   0.0060000
        k(  248) = (  -0.3000000  -1.0000000   0.0000000), wk =   0.0030000
        k(  249) = (   0.6000000  -0.2000000   1.0000000), wk =   0.0060000
        k(  250) = (   0.5500000  -0.1500000   0.9500000), wk =   0.0120000
        k(  251) = (   0.5000000  -0.1000000   0.9000000), wk =   0.0060000
        k(  252) = (   0.6000000  -0.1000000   1.0000000), wk =   0.0060000
        k(  253) = (   0.5500000  -0.0500000   0.9500000), wk =   0.0120000
        k(  254) = (   0.5000000   0.0000000   0.9000000), wk =   0.0060000
        k(  255) = (  -0.4000000  -1.0000000   0.0000000), wk =   0.0030000
        k(  256) = (  -0.5000000  -1.0000000   0.0000000), wk =   0.0015000

                       cryst. coord.
        k(    1) = (   0.0000000   0.0000000   0.0000000), wk =   0.0002500
        k(    2) = (   0.0000000   0.0000000   0.0500000), wk =   0.0020000
        k(    3) = (   0.0000000   0.0000000   0.1000000), wk =   0.0020000
        k(    4) = (   0.0000000   0.0000000   0.1500000), wk =   0.0020000
        k(    5) = (   0.0000000   0.0000000   0.2000000), wk =   0.0020000
        k(    6) = (   0.0000000   0.0000000   0.2500000), wk =   0.0020000
        k(    7) = (   0.0000000   0.0000000   0.3000000), wk =   0.0020000
        k(    8) = (   0.0000000   0.0000000   0.3500000), wk =   0.0020000
        k(    9) = (   0.0000000   0.0000000   0.4000000), wk =   0.0020000
        k(   10) = (   0.0000000   0.0000000   0.4500000), wk =   0.0020000
        k(   11) = (   0.0000000   0.0000000  -0.5000000), wk =   0.0010000
        k(   12) = (   0.0000000   0.0500000   0.0500000), wk =   0.0015000
        k(   13) = (   0.0000000   0.0500000   0.1000000), wk =   0.0060000
        k(   14) = (   0.0000000   0.0500000   0.1500000), wk =   0.0060000
        k(   15) = (   0.0000000   0.0500000   0.2000000), wk =   0.0060000
        k(   16) = (   0.0000000   0.0500000   0.2500000), wk =   0.0060000
        k(   17) = (   0.0000000   0.0500000   0.3000000), wk =   0.0060000
        k(   18) = (   0.0000000   0.0500000   0.3500000), wk =   0.0060000
        k(   19) = (   0.0000000   0.0500000   0.4000000), wk =   0.0060000
        k(   20) = (   0.0000000   0.0500000   0.4500000), wk =   0.0060000
        k(   21) = (   0.0000000   0.0500000  -0.5000000), wk =   0.0060000
        k(   22) = (   0.0000000   0.0500000  -0.4500000), wk =   0.0060000
        k(   23) = (   0.0000000   0.0500000  -0.4000000), wk =   0.0060000
        k(   24) = (   0.0000000   0.0500000  -0.3500000), wk =   0.0060000
        k(   25) = (   0.0000000   0.0500000  -0.3000000), wk =   0.0060000
        k(   26) = (   0.0000000   0.0500000  -0.2500000), wk =   0.0060000
        k(   27) = (   0.0000000   0.0500000  -0.2000000), wk =   0.0060000
        k(   28) = (   0.0000000   0.0500000  -0.1500000), wk =   0.0060000
        k(   29) = (   0.0000000   0.0500000  -0.1000000), wk =   0.0060000
        k(   30) = (   0.0000000   0.0500000  -0.0500000), wk =   0.0030000
        k(   31) = (   0.0000000   0.1000000   0.1000000), wk =   0.0015000
        k(   32) = (   0.0000000   0.1000000   0.1500000), wk =   0.0060000
        k(   33) = (   0.0000000   0.1000000   0.2000000), wk =   0.0060000
        k(   34) = (   0.0000000   0.1000000   0.2500000), wk =   0.0060000
        k(   35) = (   0.0000000   0.1000000   0.3000000), wk =   0.0060000
        k(   36) = (   0.0000000   0.1000000   0.3500000), wk =   0.0060000
        k(   37) = (   0.0000000   0.1000000   0.4000000), wk =   0.0060000
        k(   38) = (   0.0000000   0.1000000   0.4500000), wk =   0.0060000
        k(   39) = (   0.0000000   0.1000000  -0.5000000), wk =   0.0060000
        k(   40) = (   0.0000000   0.1000000  -0.4500000), wk =   0.0060000
        k(   41) = (   0.0000000   0.1000000  -0.4000000), wk =   0.0060000
        k(   42) = (   0.0000000   0.1000000  -0.3500000), wk =   0.0060000
        k(   43) = (   0.0000000   0.1000000  -0.3000000), wk =   0.0060000
        k(   44) = (   0.0000000   0.1000000  -0.2500000), wk =   0.0060000
        k(   45) = (   0.0000000   0.1000000  -0.2000000), wk =   0.0060000
        k(   46) = (   0.0000000   0.1000000  -0.1500000), wk =   0.0060000
        k(   47) = (   0.0000000   0.1000000  -0.1000000), wk =   0.0030000
        k(   48) = (   0.0000000   0.1500000   0.1500000), wk =   0.0015000
        k(   49) = (   0.0000000   0.1500000   0.2000000), wk =   0.0060000
        k(   50) = (   0.0000000   0.1500000   0.2500000), wk =   0.0060000
        k(   51) = (   0.0000000   0.1500000   0.3000000), wk =   0.0060000
        k(   52) = (   0.0000000   0.1500000   0.3500000), wk =   0.0060000
        k(   53) = (   0.0000000   0.1500000   0.4000000), wk =   0.0060000
        k(   54) = (   0.0000000   0.1500000   0.4500000), wk =   0.0060000
        k(   55) = (   0.0000000   0.1500000  -0.5000000), wk =   0.0060000
        k(   56) = (   0.0000000   0.1500000  -0.4500000), wk =   0.0060000
        k(   57) = (   0.0000000   0.1500000  -0.4000000), wk =   0.0060000
        k(   58) = (   0.0000000   0.1500000  -0.3500000), wk =   0.0060000
        k(   59) = (   0.0000000   0.1500000  -0.3000000), wk =   0.0060000
        k(   60) = (   0.0000000   0.1500000  -0.2500000), wk =   0.0060000
        k(   61) = (   0.0000000   0.1500000  -0.2000000), wk =   0.0060000
        k(   62) = (   0.0000000   0.1500000  -0.1500000), wk =   0.0030000
        k(   63) = (   0.0000000   0.2000000   0.2000000), wk =   0.0015000
        k(   64) = (   0.0000000   0.2000000   0.2500000), wk =   0.0060000
        k(   65) = (   0.0000000   0.2000000   0.3000000), wk =   0.0060000
        k(   66) = (   0.0000000   0.2000000   0.3500000), wk =   0.0060000
        k(   67) = (   0.0000000   0.2000000   0.4000000), wk =   0.0060000
        k(   68) = (   0.0000000   0.2000000   0.4500000), wk =   0.0060000
        k(   69) = (   0.0000000   0.2000000  -0.5000000), wk =   0.0060000
        k(   70) = (   0.0000000   0.2000000  -0.4500000), wk =   0.0060000
        k(   71) = (   0.0000000   0.2000000  -0.4000000), wk =   0.0060000
        k(   72) = (   0.0000000   0.2000000  -0.3500000), wk =   0.0060000
        k(   73) = (   0.0000000   0.2000000  -0.3000000), wk =   0.0060000
        k(   74) = (   0.0000000   0.2000000  -0.2500000), wk =   0.0060000
        k(   75) = (   0.0000000   0.2000000  -0.2000000), wk =   0.0030000
        k(   76) = (   0.0000000   0.2500000   0.2500000), wk =   0.0015000
        k(   77) = (   0.0000000   0.2500000   0.3000000), wk =   0.0060000
        k(   78) = (   0.0000000   0.2500000   0.3500000), wk =   0.0060000
        k(   79) = (   0.0000000   0.2500000   0.4000000), wk =   0.0060000
        k(   80) = (   0.0000000   0.2500000   0.4500000), wk =   0.0060000
        k(   81) = (   0.0000000   0.2500000  -0.5000000), wk =   0.0060000
        k(   82) = (   0.0000000   0.2500000  -0.4500000), wk =   0.0060000
        k(   83) = (   0.0000000   0.2500000  -0.4000000), wk =   0.0060000
        k(   84) = (   0.0000000   0.2500000  -0.3500000), wk =   0.0060000
        k(   85) = (   0.0000000   0.2500000  -0.3000000), wk =   0.0060000
        k(   86) = (   0.0000000   0.2500000  -0.2500000), wk =   0.0030000
        k(   87) = (   0.0000000   0.3000000   0.3000000), wk =   0.0015000
        k(   88) = (   0.0000000   0.3000000   0.3500000), wk =   0.0060000
        k(   89) = (   0.0000000   0.3000000   0.4000000), wk =   0.0060000
        k(   90) = (   0.0000000   0.3000000   0.4500000), wk =   0.0060000
        k(   91) = (   0.0000000   0.3000000  -0.5000000), wk =   0.0060000
        k(   92) = (   0.0000000   0.3000000  -0.4500000), wk =   0.0060000
        k(   93) = (   0.0000000   0.3000000  -0.4000000), wk =   0.0060000
        k(   94) = (   0.0000000   0.3000000  -0.3500000), wk =   0.0060000
        k(   95) = (   0.0000000   0.3000000  -0.3000000), wk =   0.0030000
        k(   96) = (   0.0000000   0.3500000   0.3500000), wk =   0.0015000
        k(   97) = (   0.0000000   0.3500000   0.4000000), wk =   0.0060000
        k(   98) = (   0.0000000   0.3500000   0.4500000), wk =   0.0060000
        k(   99) = (   0.0000000   0.3500000  -0.5000000), wk =   0.0060000
        k(  100) = (   0.0000000   0.3500000  -0.4500000), wk =   0.0060000
        k(  101) = (   0.0000000   0.3500000  -0.4000000), wk =   0.0060000
        k(  102) = (   0.0000000   0.3500000  -0.3500000), wk =   0.0030000
        k(  103) = (   0.0000000   0.4000000   0.4000000), wk =   0.0015000
        k(  104) = (   0.0000000   0.4000000   0.4500000), wk =   0.0060000
        k(  105) = (   0.0000000   0.4000000  -0.5000000), wk =   0.0060000
        k(  106) = (   0.0000000   0.4000000  -0.4500000), wk =   0.0060000
        k(  107) = (   0.0000000   0.4000000  -0.4000000), wk =   0.0030000
        k(  108) = (   0.0000000   0.4500000   0.4500000), wk =   0.0015000
        k(  109) = (   0.0000000   0.4500000  -0.5000000), wk =   0.0060000
        k(  110) = (   0.0000000   0.4500000  -0.4500000), wk =   0.0030000
        k(  111) = (   0.0000000  -0.5000000  -0.5000000), wk =   0.0007500
        k(  112) = (   0.0500000   0.1000000   0.1500000), wk =   0.0060000
        k(  113) = (   0.0500000   0.1000000   0.2000000), wk =   0.0120000
        k(  114) = (   0.0500000   0.1000000   0.2500000), wk =   0.0120000
        k(  115) = (   0.0500000   0.1000000   0.3000000), wk =   0.0120000
        k(  116) = (   0.0500000   0.1000000   0.3500000), wk =   0.0120000
        k(  117) = (   0.0500000   0.1000000   0.4000000), wk =   0.0120000
        k(  118) = (   0.0500000   0.1000000   0.4500000), wk =   0.0120000
        k(  119) = (   0.0500000   0.1000000  -0.5000000), wk =   0.0120000
        k(  120) = (   0.0500000   0.1000000  -0.4500000), wk =   0.0060000
        k(  121) = (   0.0500000   0.1500000   0.2000000), wk =   0.0060000
        k(  122) = (   0.0500000   0.1500000   0.2500000), wk =   0.0120000
        k(  123) = (   0.0500000   0.1500000   0.3000000), wk =   0.0120000
        k(  124) = (   0.0500000   0.1500000   0.3500000), wk =   0.0120000
        k(  125) = (   0.0500000   0.1500000   0.4000000), wk =   0.0120000
        k(  126) = (   0.0500000   0.1500000   0.4500000), wk =   0.0120000
        k(  127) = (   0.0500000   0.1500000  -0.5000000), wk =   0.0120000
        k(  128) = (   0.0500000   0.1500000  -0.4500000), wk =   0.0120000
        k(  129) = (   0.0500000   0.1500000  -0.4000000), wk =   0.0120000
        k(  130) = (   0.0500000   0.1500000  -0.3500000), wk =   0.0120000
        k(  131) = (   0.0500000   0.1500000  -0.3000000), wk =   0.0120000
        k(  132) = (   0.0500000   0.1500000  -0.2500000), wk =   0.0120000
        k(  133) = (   0.0500000   0.1500000  -0.2000000), wk =   0.0120000
        k(  134) = (   0.0500000   0.1500000  -0.1500000), wk =   0.0120000
        k(  135) = (   0.0500000   0.1500000  -0.1000000), wk =   0.0060000
        k(  136) = (   0.0500000   0.2000000   0.2500000), wk =   0.0060000
        k(  137) = (   0.0500000   0.2000000   0.3000000), wk =   0.0120000
        k(  138) = (   0.0500000   0.2000000   0.3500000), wk =   0.0120000
        k(  139) = (   0.0500000   0.2000000   0.4000000), wk =   0.0120000
        k(  140) = (   0.0500000   0.2000000   0.4500000), wk =   0.0120000
        k(  141) = (   0.0500000   0.2000000  -0.5000000), wk =   0.0120000
        k(  142) = (   0.0500000   0.2000000  -0.4500000), wk =   0.0120000
        k(  143) = (   0.0500000   0.2000000  -0.4000000), wk =   0.0120000
        k(  144) = (   0.0500000   0.2000000  -0.3500000), wk =   0.0120000
        k(  145) = (   0.0500000   0.2000000  -0.3000000), wk =   0.0120000
        k(  146) = (   0.0500000   0.2000000  -0.2500000), wk =   0.0120000
        k(  147) = (   0.0500000   0.2000000  -0.2000000), wk =   0.0120000
        k(  148) = (   0.0500000   0.2000000  -0.1500000), wk =   0.0060000
        k(  149) = (   0.0500000   0.2500000   0.3000000), wk =   0.0060000
        k(  150) = (   0.0500000   0.2500000   0.3500000), wk =   0.0120000
        k(  151) = (   0.0500000   0.2500000   0.4000000), wk =   0.0120000
        k(  152) = (   0.0500000   0.2500000   0.4500000), wk =   0.0120000
        k(  153) = (   0.0500000   0.2500000  -0.5000000), wk =   0.0120000
        k(  154) = (   0.0500000   0.2500000  -0.4500000), wk =   0.0120000
        k(  155) = (   0.0500000   0.2500000  -0.4000000), wk =   0.0120000
        k(  156) = (   0.0500000   0.2500000  -0.3500000), wk =   0.0120000
        k(  157) = (   0.0500000   0.2500000  -0.3000000), wk =   0.0120000
        k(  158) = (   0.0500000   0.2500000  -0.2500000), wk =   0.0120000
        k(  159) = (   0.0500000   0.2500000  -0.2000000), wk =   0.0060000
        k(  160) = (   0.0500000   0.3000000   0.3500000), wk =   0.0060000
        k(  161) = (   0.0500000   0.3000000   0.4000000), wk =   0.0120000
        k(  162) = (   0.0500000   0.3000000   0.4500000), wk =   0.0120000
        k(  163) = (   0.0500000   0.3000000  -0.5000000), wk =   0.0120000
        k(  164) = (   0.0500000   0.3000000  -0.4500000), wk =   0.0120000
        k(  165) = (   0.0500000   0.3000000  -0.4000000), wk =   0.0120000
        k(  166) = (   0.0500000   0.3000000  -0.3500000), wk =   0.0120000
        k(  167) = (   0.0500000   0.3000000  -0.3000000), wk =   0.0120000
        k(  168) = (   0.0500000   0.3000000  -0.2500000), wk =   0.0060000
        k(  169) = (   0.0500000   0.3500000   0.4000000), wk =   0.0060000
        k(  170) = (   0.0500000   0.3500000   0.4500000), wk =   0.0120000
        k(  171) = (   0.0500000   0.3500000  -0.5000000), wk =   0.0120000
        k(  172) = (   0.0500000   0.3500000  -0.4500000), wk =   0.0120000
        k(  173) = (   0.0500000   0.3500000  -0.4000000), wk =   0.0120000
        k(  174) = (   0.0500000   0.3500000  -0.3500000), wk =   0.0120000
        k(  175) = (   0.0500000   0.3500000  -0.3000000), wk =   0.0060000
        k(  176) = (   0.0500000   0.4000000   0.4500000), wk =   0.0060000
        k(  177) = (   0.0500000   0.4000000  -0.5000000), wk =   0.0120000
        k(  178) = (   0.0500000   0.4000000  -0.4500000), wk =   0.0120000
        k(  179) = (   0.0500000   0.4000000  -0.4000000), wk =   0.0120000
        k(  180) = (   0.0500000   0.4000000  -0.3500000), wk =   0.0060000
        k(  181) = (   0.0500000   0.4500000  -0.5000000), wk =   0.0060000
        k(  182) = (   0.0500000   0.4500000  -0.4500000), wk =   0.0120000
        k(  183) = (   0.0500000   0.4500000  -0.4000000), wk =   0.0060000
        k(  184) = (   0.0500000  -0.5000000  -0.4500000), wk =   0.0030000
        k(  185) = (   0.1000000   0.2000000   0.3000000), wk =   0.0060000
        k(  186) = (   0.1000000   0.2000000   0.3500000), wk =   0.0120000
        k(  187) = (   0.1000000   0.2000000   0.4000000), wk =   0.0120000
        k(  188) = (   0.1000000   0.2000000   0.4500000), wk =   0.0120000
        k(  189) = (   0.1000000   0.2000000  -0.5000000), wk =   0.0120000
        k(  190) = (   0.1000000   0.2000000  -0.4500000), wk =   0.0120000
        k(  191) = (   0.1000000   0.2000000  -0.4000000), wk =   0.0060000
        k(  192) = (   0.1000000   0.2500000   0.3500000), wk =   0.0060000
        k(  193) = (   0.1000000   0.2500000   0.4000000), wk =   0.0120000
        k(  194) = (   0.1000000   0.2500000   0.4500000), wk =   0.0120000
        k(  195) = (   0.1000000   0.2500000  -0.5000000), wk =   0.0120000
        k(  196) = (   0.1000000   0.2500000  -0.4500000), wk =   0.0120000
        k(  197) = (   0.1000000   0.2500000  -0.4000000), wk =   0.0120000
        k(  198) = (   0.1000000   0.2500000  -0.3500000), wk =   0.0120000
        k(  199) = (   0.1000000   0.2500000  -0.3000000), wk =   0.0120000
        k(  200) = (   0.1000000   0.2500000  -0.2500000), wk =   0.0120000
        k(  201) = (   0.1000000   0.2500000  -0.2000000), wk =   0.0120000
        k(  202) = (   0.1000000   0.2500000  -0.1500000), wk =   0.0060000
        k(  203) = (   0.1000000   0.3000000   0.4000000), wk =   0.0060000
        k(  204) = (   0.1000000   0.3000000   0.4500000), wk =   0.0120000
        k(  205) = (   0.1000000   0.3000000  -0.5000000), wk =   0.0120000
        k(  206) = (   0.1000000   0.3000000  -0.4500000), wk =   0.0120000
        k(  207) = (   0.1000000   0.3000000  -0.4000000), wk =   0.0120000
        k(  208) = (   0.1000000   0.3000000  -0.3500000), wk =   0.0120000
        k(  209) = (   0.1000000   0.3000000  -0.3000000), wk =   0.0120000
        k(  210) = (   0.1000000   0.3000000  -0.2500000), wk =   0.0120000
        k(  211) = (   0.1000000   0.3000000  -0.2000000), wk =   0.0060000
        k(  212) = (   0.1000000   0.3500000   0.4500000), wk =   0.0060000
        k(  213) = (   0.1000000   0.3500000  -0.5000000), wk =   0.0120000
        k(  214) = (   0.1000000   0.3500000  -0.4500000), wk =   0.0120000
        k(  215) = (   0.1000000   0.3500000  -0.4000000), wk =   0.0120000
        k(  216) = (   0.1000000   0.3500000  -0.3500000), wk =   0.0120000
        k(  217) = (   0.1000000   0.3500000  -0.3000000), wk =   0.0120000
        k(  218) = (   0.1000000   0.3500000  -0.2500000), wk =   0.0060000
        k(  219) = (   0.1000000   0.4000000  -0.5000000), wk =   0.0060000
        k(  220) = (   0.1000000   0.4000000  -0.4500000), wk =   0.0120000
        k(  221) = (   0.1000000   0.4000000  -0.4000000), wk =   0.0120000
        k(  222) = (   0.1000000   0.4000000  -0.3500000), wk =   0.0120000
        k(  223) = (   0.1000000   0.4000000  -0.3000000), wk =   0.0060000
        k(  224) = (   0.1000000   0.4500000  -0.4500000), wk =   0.0060000
        k(  225) = (   0.1000000   0.4500000  -0.4000000), wk =   0.0120000
        k(  226) = (   0.1000000   0.4500000  -0.3500000), wk =   0.0060000
        k(  227) = (   0.1000000  -0.5000000  -0.4000000), wk =   0.0030000
        k(  228) = (   0.1500000   0.3000000   0.4500000), wk =   0.0060000
        k(  229) = (   0.1500000   0.3000000  -0.5000000), wk =   0.0120000
        k(  230) = (   0.1500000   0.3000000  -0.4500000), wk =   0.0120000
        k(  231) = (   0.1500000   0.3000000  -0.4000000), wk =   0.0120000
        k(  232) = (   0.1500000   0.3000000  -0.3500000), wk =   0.0060000
        k(  233) = (   0.1500000   0.3500000  -0.5000000), wk =   0.0060000
        k(  234) = (   0.1500000   0.3500000  -0.4500000), wk =   0.0120000
        k(  235) = (   0.1500000   0.3500000  -0.4000000), wk =   0.0120000
        k(  236) = (   0.1500000   0.3500000  -0.3500000), wk =   0.0120000
        k(  237) = (   0.1500000   0.3500000  -0.3000000), wk =   0.0120000
        k(  238) = (   0.1500000   0.3500000  -0.2500000), wk =   0.0120000
        k(  239) = (   0.1500000   0.3500000  -0.2000000), wk =   0.0060000
        k(  240) = (   0.1500000   0.4000000  -0.4500000), wk =   0.0060000
        k(  241) = (   0.1500000   0.4000000  -0.4000000), wk =   0.0120000
        k(  242) = (   0.1500000   0.4000000  -0.3500000), wk =   0.0120000
        k(  243) = (   0.1500000   0.4000000  -0.3000000), wk =   0.0120000
        k(  244) = (   0.1500000   0.4000000  -0.2500000), wk =   0.0060000
        k(  245) = (   0.1500000   0.4500000  -0.4000000), wk =   0.0060000
        k(  246) = (   0.1500000   0.4500000  -0.3500000), wk =   0.0120000
        k(  247) = (   0.1500000   0.4500000  -0.3000000), wk =   0.0060000
        k(  248) = (   0.1500000  -0.5000000  -0.3500000), wk =   0.0030000
        k(  249) = (   0.2000000   0.4000000  -0.4000000), wk =   0.0060000
        k(  250) = (   0.2000000   0.4000000  -0.3500000), wk =   0.0120000
        k(  251) = (   0.2000000   0.4000000  -0.3000000), wk =   0.0060000
        k(  252) = (   0.2000000   0.4500000  -0.3500000), wk =   0.0060000
        k(  253) = (   0.2000000   0.4500000  -0.3000000), wk =   0.0120000
        k(  254) = (   0.2000000   0.4500000  -0.2500000), wk =   0.0060000
        k(  255) = (   0.2000000  -0.5000000  -0.3000000), wk =   0.0030000
        k(  256) = (   0.2500000  -0.5000000  -0.2500000), wk =   0.0015000

     Dense  grid:    18149 G-vectors     FFT dimensions: (  40,  40,  40)

     Dynamical RAM for                 wfc:       0.34 MB

     Dynamical RAM for     wfc (w. buffer):       0.34 MB

     Dynamical RAM for           str. fact:       0.55 MB

     Dynamical RAM for           local pot:       0.00 MB

     Dynamical RAM for          nlocal pot:       0.28 MB

     Dynamical RAM for                qrad:       0.21 MB

     Dynamical RAM for          rho,v,vnew:       2.30 MB

     Dynamical RAM for           G-vectors:       1.18 MB

     Dynamical RAM for          h,s,v(r/c):       0.02 MB

     Dynamical RAM for          <psi|beta>:       0.00 MB

     Dynamical RAM for                 psi:       0.69 MB

     Dynamical RAM for                hpsi:       0.69 MB

     Dynamical RAM for      wfcinit/wfcrot:       0.69 MB

     Estimated static dynamical RAM per process >       8.13 MB

     Estimated max dynamical RAM per process >       9.53 MB

     The potential is recalculated from file :
     ./SCRATCH/gallium_arsenide.save/charge-density

     Starting wfcs are    8 randomized atomic wfcs +    2 random wfcs

     Band Structure Calculation
     Davidson diagonalization with overlap

     Computing kpt #:     1  of   256
     total cpu time spent up to now is        0.4 secs

     Computing kpt #:     2  of   256
     total cpu time spent up to now is        0.8 secs

     Computing kpt #:     3  of   256
     total cpu time spent up to now is        1.1 secs

     Computing kpt #:     4  of   256
     total cpu time spent up to now is        1.5 secs

     Computing kpt #:     5  of   256
     total cpu time spent up to now is        1.9 secs

     Computing kpt #:     6  of   256
     total cpu time spent up to now is        2.3 secs

     Computing kpt #:     7  of   256
     total cpu time spent up to now is        2.6 secs

     Computing kpt #:     8  of   256
     total cpu time spent up to now is        3.0 secs

     Computing kpt #:     9  of   256
     total cpu time spent up to now is        3.4 secs

     Computing kpt #:    10  of   256
     total cpu time spent up to now is        3.8 secs

     Computing kpt #:    11  of   256
     total cpu time spent up to now is        4.3 secs

     Computing kpt #:    12  of   256
     total cpu time spent up to now is        4.6 secs

     Computing kpt #:    13  of   256
     total cpu time spent up to now is        5.0 secs

     Computing kpt #:    14  of   256
     total cpu time spent up to now is        5.4 secs

     Computing kpt #:    15  of   256
     total cpu time spent up to now is        5.8 secs

     Computing kpt #:    16  of   256
     total cpu time spent up to now is        6.2 secs

     Computing kpt #:    17  of   256
     total cpu time spent up to now is        6.6 secs

     Computing kpt #:    18  of   256
     total cpu time spent up to now is        7.0 secs

     Computing kpt #:    19  of   256
     total cpu time spent up to now is        7.5 secs

     Computing kpt #:    20  of   256
     total cpu time spent up to now is        7.9 secs

     Computing kpt #:    21  of   256
     total cpu time spent up to now is        8.4 secs

     Computing kpt #:    22  of   256
     total cpu time spent up to now is        8.8 secs

     Computing kpt #:    23  of   256
     total cpu time spent up to now is        9.2 secs

     Computing kpt #:    24  of   256
     total cpu time spent up to now is        9.6 secs

     Computing kpt #:    25  of   256
     total cpu time spent up to now is       10.0 secs

     Computing kpt #:    26  of   256
     total cpu time spent up to now is       10.4 secs

     Computing kpt #:    27  of   256
     total cpu time spent up to now is       10.8 secs

     Computing kpt #:    28  of   256
     total cpu time spent up to now is       11.2 secs

     Computing kpt #:    29  of   256
     total cpu time spent up to now is       11.6 secs

     Computing kpt #:    30  of   256
     total cpu time spent up to now is       12.0 secs

     Computing kpt #:    31  of   256
     total cpu time spent up to now is       12.4 secs

     Computing kpt #:    32  of   256
     total cpu time spent up to now is       12.7 secs

     Computing kpt #:    33  of   256
     total cpu time spent up to now is       13.2 secs

     Computing kpt #:    34  of   256
     total cpu time spent up to now is       13.6 secs

     Computing kpt #:    35  of   256
     total cpu time spent up to now is       14.0 secs

     Computing kpt #:    36  of   256
     total cpu time spent up to now is       14.3 secs

     Computing kpt #:    37  of   256
     total cpu time spent up to now is       14.7 secs

     Computing kpt #:    38  of   256
     total cpu time spent up to now is       15.2 secs

     Computing kpt #:    39  of   256
     total cpu time spent up to now is       15.7 secs

     Computing kpt #:    40  of   256
     total cpu time spent up to now is       16.2 secs

     Computing kpt #:    41  of   256
     total cpu time spent up to now is       16.6 secs

     Computing kpt #:    42  of   256
     total cpu time spent up to now is       17.0 secs

     Computing kpt #:    43  of   256
     total cpu time spent up to now is       17.4 secs

     Computing kpt #:    44  of   256
     total cpu time spent up to now is       17.8 secs

     Computing kpt #:    45  of   256
     total cpu time spent up to now is       18.2 secs

     Computing kpt #:    46  of   256
     total cpu time spent up to now is       18.6 secs

     Computing kpt #:    47  of   256
     total cpu time spent up to now is       18.9 secs

     Computing kpt #:    48  of   256
     total cpu time spent up to now is       19.3 secs

     Computing kpt #:    49  of   256
     total cpu time spent up to now is       19.7 secs

     Computing kpt #:    50  of   256
     total cpu time spent up to now is       20.1 secs

     Computing kpt #:    51  of   256
     total cpu time spent up to now is       20.5 secs

     Computing kpt #:    52  of   256
     total cpu time spent up to now is       20.9 secs

     Computing kpt #:    53  of   256
     total cpu time spent up to now is       21.3 secs

     Computing kpt #:    54  of   256
     total cpu time spent up to now is       21.8 secs

     Computing kpt #:    55  of   256
     total cpu time spent up to now is       22.3 secs

     Computing kpt #:    56  of   256
     total cpu time spent up to now is       22.8 secs

     Computing kpt #:    57  of   256
     total cpu time spent up to now is       23.3 secs

     Computing kpt #:    58  of   256
     total cpu time spent up to now is       23.7 secs

     Computing kpt #:    59  of   256
     total cpu time spent up to now is       24.0 secs

     Computing kpt #:    60  of   256
     total cpu time spent up to now is       24.4 secs

     Computing kpt #:    61  of   256
     total cpu time spent up to now is       24.8 secs

     Computing kpt #:    62  of   256
     total cpu time spent up to now is       25.1 secs

     Computing kpt #:    63  of   256
     total cpu time spent up to now is       25.5 secs

     Computing kpt #:    64  of   256
     total cpu time spent up to now is       25.9 secs

     Computing kpt #:    65  of   256
     total cpu time spent up to now is       26.4 secs

     Computing kpt #:    66  of   256
     total cpu time spent up to now is       26.8 secs

     Computing kpt #:    67  of   256
     total cpu time spent up to now is       27.3 secs

     Computing kpt #:    68  of   256
     total cpu time spent up to now is       27.7 secs

     Computing kpt #:    69  of   256
     total cpu time spent up to now is       28.3 secs

     Computing kpt #:    70  of   256
     total cpu time spent up to now is       28.8 secs

     Computing kpt #:    71  of   256
     total cpu time spent up to now is       29.3 secs

     Computing kpt #:    72  of   256
     total cpu time spent up to now is       29.8 secs

     Computing kpt #:    73  of   256
     total cpu time spent up to now is       30.2 secs

     Computing kpt #:    74  of   256
     total cpu time spent up to now is       30.6 secs

     Computing kpt #:    75  of   256
     total cpu time spent up to now is       30.9 secs

     Computing kpt #:    76  of   256
     total cpu time spent up to now is       31.3 secs

     Computing kpt #:    77  of   256
     total cpu time spent up to now is       31.8 secs

     Computing kpt #:    78  of   256
     total cpu time spent up to now is       32.2 secs

     Computing kpt #:    79  of   256
     total cpu time spent up to now is       32.7 secs

     Computing kpt #:    80  of   256
     total cpu time spent up to now is       33.3 secs

     Computing kpt #:    81  of   256
     total cpu time spent up to now is       33.9 secs

     Computing kpt #:    82  of   256
     total cpu time spent up to now is       34.3 secs

     Computing kpt #:    83  of   256
     total cpu time spent up to now is       34.9 secs

     Computing kpt #:    84  of   256
     total cpu time spent up to now is       35.4 secs

     Computing kpt #:    85  of   256
     total cpu time spent up to now is       35.7 secs

     Computing kpt #:    86  of   256
     total cpu time spent up to now is       36.1 secs

     Computing kpt #:    87  of   256
     total cpu time spent up to now is       36.5 secs

     Computing kpt #:    88  of   256
     total cpu time spent up to now is       37.0 secs

     Computing kpt #:    89  of   256
     total cpu time spent up to now is       37.5 secs

     Computing kpt #:    90  of   256
     total cpu time spent up to now is       38.2 secs

     Computing kpt #:    91  of   256
     total cpu time spent up to now is       38.7 secs

     Computing kpt #:    92  of   256
     total cpu time spent up to now is       39.2 secs

     Computing kpt #:    93  of   256
     total cpu time spent up to now is       39.7 secs

     Computing kpt #:    94  of   256
     total cpu time spent up to now is       40.2 secs

     Computing kpt #:    95  of   256
     total cpu time spent up to now is       40.6 secs

     Computing kpt #:    96  of   256
     total cpu time spent up to now is       41.0 secs

     Computing kpt #:    97  of   256
     total cpu time spent up to now is       41.6 secs

     Computing kpt #:    98  of   256
     total cpu time spent up to now is       42.3 secs

     Computing kpt #:    99  of   256
     total cpu time spent up to now is       42.9 secs

     Computing kpt #:   100  of   256
     total cpu time spent up to now is       43.4 secs

     Computing kpt #:   101  of   256
     total cpu time spent up to now is       43.8 secs

     Computing kpt #:   102  of   256
     total cpu time spent up to now is       44.3 secs

     Computing kpt #:   103  of   256
     total cpu time spent up to now is       44.8 secs

     Computing kpt #:   104  of   256
     c_bands:  1 eigenvalues not converged
     total cpu time spent up to now is       45.5 secs

     Computing kpt #:   105  of   256
     total cpu time spent up to now is       46.1 secs

     Computing kpt #:   106  of   256
     total cpu time spent up to now is       46.5 secs

     Computing kpt #:   107  of   256
     total cpu time spent up to now is       47.0 secs

     Computing kpt #:   108  of   256
     total cpu time spent up to now is       47.5 secs

     Computing kpt #:   109  of   256
     total cpu time spent up to now is       48.1 secs

     Computing kpt #:   110  of   256
     total cpu time spent up to now is       48.5 secs

     Computing kpt #:   111  of   256
     total cpu time spent up to now is       49.0 secs

     Computing kpt #:   112  of   256
     total cpu time spent up to now is       49.3 secs

     Computing kpt #:   113  of   256
     total cpu time spent up to now is       49.7 secs

     Computing kpt #:   114  of   256
     total cpu time spent up to now is       50.1 secs

     Computing kpt #:   115  of   256
     total cpu time spent up to now is       50.5 secs

     Computing kpt #:   116  of   256
     total cpu time spent up to now is       51.0 secs

     Computing kpt #:   117  of   256
     total cpu time spent up to now is       51.4 secs

     Computing kpt #:   118  of   256
     total cpu time spent up to now is       51.8 secs

     Computing kpt #:   119  of   256
     total cpu time spent up to now is       52.3 secs

     Computing kpt #:   120  of   256
     total cpu time spent up to now is       52.8 secs

     Computing kpt #:   121  of   256
     total cpu time spent up to now is       53.2 secs

     Computing kpt #:   122  of   256
     total cpu time spent up to now is       53.6 secs

     Computing kpt #:   123  of   256
     total cpu time spent up to now is       54.0 secs

     Computing kpt #:   124  of   256
     total cpu time spent up to now is       54.4 secs

     Computing kpt #:   125  of   256
     total cpu time spent up to now is       54.9 secs

     Computing kpt #:   126  of   256
     total cpu time spent up to now is       55.3 secs

     Computing kpt #:   127  of   256
     total cpu time spent up to now is       55.8 secs

     Computing kpt #:   128  of   256
     total cpu time spent up to now is       56.4 secs

     Computing kpt #:   129  of   256
     total cpu time spent up to now is       56.9 secs

     Computing kpt #:   130  of   256
     total cpu time spent up to now is       57.4 secs

     Computing kpt #:   131  of   256
     total cpu time spent up to now is       57.8 secs

     Computing kpt #:   132  of   256
     total cpu time spent up to now is       58.2 secs

     Computing kpt #:   133  of   256
     total cpu time spent up to now is       58.6 secs

     Computing kpt #:   134  of   256
     total cpu time spent up to now is       59.0 secs

     Computing kpt #:   135  of   256
     total cpu time spent up to now is       59.4 secs

     Computing kpt #:   136  of   256
     total cpu time spent up to now is       59.8 secs

     Computing kpt #:   137  of   256
     total cpu time spent up to now is       60.3 secs

     Computing kpt #:   138  of   256
     total cpu time spent up to now is       60.7 secs

     Computing kpt #:   139  of   256
     total cpu time spent up to now is       61.1 secs

     Computing kpt #:   140  of   256
     total cpu time spent up to now is       61.6 secs

     Computing kpt #:   141  of   256
     total cpu time spent up to now is       62.1 secs

     Computing kpt #:   142  of   256
     total cpu time spent up to now is       62.7 secs

     Computing kpt #:   143  of   256
     total cpu time spent up to now is       63.3 secs

     Computing kpt #:   144  of   256
     total cpu time spent up to now is       63.7 secs

     Computing kpt #:   145  of   256
     total cpu time spent up to now is       64.2 secs

     Computing kpt #:   146  of   256
     total cpu time spent up to now is       64.6 secs

     Computing kpt #:   147  of   256
     total cpu time spent up to now is       65.0 secs

     Computing kpt #:   148  of   256
     total cpu time spent up to now is       65.4 secs

     Computing kpt #:   149  of   256
     total cpu time spent up to now is       65.8 secs

     Computing kpt #:   150  of   256
     total cpu time spent up to now is       66.3 secs

     Computing kpt #:   151  of   256
     total cpu time spent up to now is       66.8 secs

     Computing kpt #:   152  of   256
     total cpu time spent up to now is       67.3 secs

     Computing kpt #:   153  of   256
     total cpu time spent up to now is       67.9 secs

     Computing kpt #:   154  of   256
     total cpu time spent up to now is       68.5 secs

     Computing kpt #:   155  of   256
     total cpu time spent up to now is       69.0 secs

     Computing kpt #:   156  of   256
     total cpu time spent up to now is       69.5 secs

     Computing kpt #:   157  of   256
     total cpu time spent up to now is       69.9 secs

     Computing kpt #:   158  of   256
     total cpu time spent up to now is       70.3 secs

     Computing kpt #:   159  of   256
     total cpu time spent up to now is       70.7 secs

     Computing kpt #:   160  of   256
     total cpu time spent up to now is       71.2 secs

     Computing kpt #:   161  of   256
     total cpu time spent up to now is       71.7 secs

     Computing kpt #:   162  of   256
     total cpu time spent up to now is       72.2 secs

     Computing kpt #:   163  of   256
     total cpu time spent up to now is       72.8 secs

     Computing kpt #:   164  of   256
     total cpu time spent up to now is       73.4 secs

     Computing kpt #:   165  of   256
     total cpu time spent up to now is       73.9 secs

     Computing kpt #:   166  of   256
     total cpu time spent up to now is       74.4 secs

     Computing kpt #:   167  of   256
     total cpu time spent up to now is       74.9 secs

     Computing kpt #:   168  of   256
     total cpu time spent up to now is       75.3 secs

     Computing kpt #:   169  of   256
     total cpu time spent up to now is       75.8 secs

     Computing kpt #:   170  of   256
     total cpu time spent up to now is       76.5 secs

     Computing kpt #:   171  of   256
     total cpu time spent up to now is       77.1 secs

     Computing kpt #:   172  of   256
     total cpu time spent up to now is       77.7 secs

     Computing kpt #:   173  of   256
     total cpu time spent up to now is       78.2 secs

     Computing kpt #:   174  of   256
     total cpu time spent up to now is       78.7 secs

     Computing kpt #:   175  of   256
     total cpu time spent up to now is       79.2 secs

     Computing kpt #:   176  of   256
     total cpu time spent up to now is       79.9 secs

     Computing kpt #:   177  of   256
     total cpu time spent up to now is       80.5 secs

     Computing kpt #:   178  of   256
     total cpu time spent up to now is       81.0 secs

     Computing kpt #:   179  of   256
     total cpu time spent up to now is       81.5 secs

     Computing kpt #:   180  of   256
     total cpu time spent up to now is       82.0 secs

     Computing kpt #:   181  of   256
     total cpu time spent up to now is       82.6 secs

     Computing kpt #:   182  of   256
     total cpu time spent up to now is       83.1 secs

     Computing kpt #:   183  of   256
     total cpu time spent up to now is       83.6 secs

     Computing kpt #:   184  of   256
     total cpu time spent up to now is       84.0 secs

     Computing kpt #:   185  of   256
     total cpu time spent up to now is       84.4 secs

     Computing kpt #:   186  of   256
     total cpu time spent up to now is       84.8 secs

     Computing kpt #:   187  of   256
     total cpu time spent up to now is       85.2 secs

     Computing kpt #:   188  of   256
     total cpu time spent up to now is       85.7 secs

     Computing kpt #:   189  of   256
     total cpu time spent up to now is       86.2 secs

     Computing kpt #:   190  of   256
     total cpu time spent up to now is       86.7 secs

     Computing kpt #:   191  of   256
     total cpu time spent up to now is       87.3 secs

     Computing kpt #:   192  of   256
     total cpu time spent up to now is       87.7 secs

     Computing kpt #:   193  of   256
     total cpu time spent up to now is       88.2 secs

     Computing kpt #:   194  of   256
     total cpu time spent up to now is       88.7 secs

     Computing kpt #:   195  of   256
     total cpu time spent up to now is       89.2 secs

     Computing kpt #:   196  of   256
     total cpu time spent up to now is       89.8 secs

     Computing kpt #:   197  of   256
     total cpu time spent up to now is       90.4 secs

     Computing kpt #:   198  of   256
     total cpu time spent up to now is       90.9 secs

     Computing kpt #:   199  of   256
     total cpu time spent up to now is       91.4 secs

     Computing kpt #:   200  of   256
     total cpu time spent up to now is       91.9 secs

     Computing kpt #:   201  of   256
     total cpu time spent up to now is       92.4 secs

     Computing kpt #:   202  of   256
     total cpu time spent up to now is       92.8 secs

     Computing kpt #:   203  of   256
     total cpu time spent up to now is       93.3 secs

     Computing kpt #:   204  of   256
     total cpu time spent up to now is       93.8 secs

     Computing kpt #:   205  of   256
     total cpu time spent up to now is       94.4 secs

     Computing kpt #:   206  of   256
     total cpu time spent up to now is       95.0 secs

     Computing kpt #:   207  of   256
     total cpu time spent up to now is       95.5 secs

     Computing kpt #:   208  of   256
     total cpu time spent up to now is       96.1 secs

     Computing kpt #:   209  of   256
     total cpu time spent up to now is       96.6 secs

     Computing kpt #:   210  of   256
     total cpu time spent up to now is       97.1 secs

     Computing kpt #:   211  of   256
     total cpu time spent up to now is       97.6 secs

     Computing kpt #:   212  of   256
     total cpu time spent up to now is       98.1 secs

     Computing kpt #:   213  of   256
     total cpu time spent up to now is       98.7 secs

     Computing kpt #:   214  of   256
     total cpu time spent up to now is       99.3 secs

     Computing kpt #:   215  of   256
     total cpu time spent up to now is       99.9 secs

     Computing kpt #:   216  of   256
     total cpu time spent up to now is      100.4 secs

     Computing kpt #:   217  of   256
     total cpu time spent up to now is      100.9 secs

     Computing kpt #:   218  of   256
     total cpu time spent up to now is      101.4 secs

     Computing kpt #:   219  of   256
     total cpu time spent up to now is      102.0 secs

     Computing kpt #:   220  of   256
     total cpu time spent up to now is      102.6 secs

     Computing kpt #:   221  of   256
     total cpu time spent up to now is      103.2 secs

     Computing kpt #:   222  of   256
     total cpu time spent up to now is      103.7 secs

     Computing kpt #:   223  of   256
     total cpu time spent up to now is      104.2 secs

     Computing kpt #:   224  of   256
     total cpu time spent up to now is      104.8 secs

     Computing kpt #:   225  of   256
     total cpu time spent up to now is      105.4 secs

     Computing kpt #:   226  of   256
     total cpu time spent up to now is      105.8 secs

     Computing kpt #:   227  of   256
     total cpu time spent up to now is      106.2 secs

     Computing kpt #:   228  of   256
     total cpu time spent up to now is      106.7 secs

     Computing kpt #:   229  of   256
     total cpu time spent up to now is      107.2 secs

     Computing kpt #:   230  of   256
     total cpu time spent up to now is      107.7 secs

     Computing kpt #:   231  of   256
     total cpu time spent up to now is      108.3 secs

     Computing kpt #:   232  of   256
     total cpu time spent up to now is      108.8 secs

     Computing kpt #:   233  of   256
     total cpu time spent up to now is      109.4 secs

     Computing kpt #:   234  of   256
     total cpu time spent up to now is      110.0 secs

     Computing kpt #:   235  of   256
     total cpu time spent up to now is      110.6 secs

     Computing kpt #:   236  of   256
     total cpu time spent up to now is      111.2 secs

     Computing kpt #:   237  of   256
     total cpu time spent up to now is      111.7 secs

     Computing kpt #:   238  of   256
     total cpu time spent up to now is      112.2 secs

     Computing kpt #:   239  of   256
     total cpu time spent up to now is      112.7 secs

     Computing kpt #:   240  of   256
     total cpu time spent up to now is      113.4 secs

     Computing kpt #:   241  of   256
     total cpu time spent up to now is      114.0 secs

     Computing kpt #:   242  of   256
     total cpu time spent up to now is      114.6 secs

     Computing kpt #:   243  of   256
     total cpu time spent up to now is      115.1 secs

     Computing kpt #:   244  of   256
     total cpu time spent up to now is      115.7 secs

     Computing kpt #:   245  of   256
     total cpu time spent up to now is      116.2 secs

     Computing kpt #:   246  of   256
     total cpu time spent up to now is      116.7 secs

     Computing kpt #:   247  of   256
     total cpu time spent up to now is      117.2 secs

     Computing kpt #:   248  of   256
     total cpu time spent up to now is      117.6 secs

     Computing kpt #:   249  of   256
     total cpu time spent up to now is      118.2 secs

     Computing kpt #:   250  of   256
     total cpu time spent up to now is      118.8 secs

     Computing kpt #:   251  of   256
     total cpu time spent up to now is      119.3 secs

     Computing kpt #:   252  of   256
     total cpu time spent up to now is      119.8 secs

     Computing kpt #:   253  of   256
     total cpu time spent up to now is      120.3 secs

     Computing kpt #:   254  of   256
     total cpu time spent up to now is      120.8 secs

     Computing kpt #:   255  of   256
     total cpu time spent up to now is      121.3 secs

     Computing kpt #:   256  of   256
     total cpu time spent up to now is      121.7 secs

     ethr =  1.25E-10,  avg # of iterations = 55.6

     total cpu time spent up to now is      121.7 secs

     End of band structure calculation

          k = 0.0000 0.0000 0.0000 (  2229 PWs)   bands (ev):

    -7.6501   5.1667   5.1667   5.1667   6.5593   9.0445   9.0445   9.0445
    13.5414  15.4080

     occupation numbers 
     1.0000   1.0000   1.0000   1.0000   0.0000   0.0000   0.0000   0.0000
     0.0000   0.0000

          k =-0.0500 0.0500-0.0500 (  2241 PWs)   bands (ev):

    -7.6239   4.6628   5.1237   5.1237   6.9276   9.0978   9.1108   9.1108
    13.7117  15.1660

     occupation numbers 
     1.0000   1.0000   1.0000   1.0000   0.0000   0.0000   0.0000   0.0000
     0.0000   0.0000

          k =-0.1000 0.1000-0.1000 (  2232 PWs)   bands (ev):

    -7.5458   3.7602   5.0071   5.0071   7.3363   9.2894   9.2894   9.3783
    14.1582  14.7393

     occupation numbers 
     1.0000   1.0000   1.0000   1.0000   0.0000   0.0000   0.0000   0.0000
     0.0000   0.0000

          k =-0.1500 0.1500-0.1500 (  2238 PWs)   bands (ev):

    -7.4175   2.7976   4.8443   4.8443   7.4105   9.5271   9.5271   9.9927
    14.3921  14.3921

     occupation numbers 
[...]
     0.0000   0.0000

          k = 0.6500-0.3500 0.8500 (  2264 PWs)   bands (ev):

    -5.9865  -0.9286   2.0477   3.2572   8.3216   9.7774  10.8806  12.3196
    15.2808  16.6761

     occupation numbers 
     1.0000   1.0000   1.0000   1.0000   0.0000   0.0000   0.0000   0.0000
     0.0000   0.0000

          k = 0.6000-0.3000 0.8000 (  2259 PWs)   bands (ev):

    -5.7979  -1.2812   1.8989   3.1810   8.3442   9.6926  11.5090  12.4119
    14.8989  17.0879

     occupation numbers 
     1.0000   1.0000   1.0000   1.0000   0.0000   0.0000   0.0000   0.0000
     0.0000   0.0000

          k = 0.5500-0.2500 0.7500 (  2260 PWs)   bands (ev):

    -5.6999  -1.4538   1.8026   3.1747   8.3992   9.5948  11.8378  12.8605
    14.1559  17.1749

     occupation numbers 
     1.0000   1.0000   1.0000   1.0000   0.0000   0.0000   0.0000   0.0000
     0.0000   0.0000

          k = 0.5000-0.2000 0.7000 (  2264 PWs)   bands (ev):

    -5.7233  -1.4108   1.7616   3.2383   8.4862   9.5383  11.8098  13.0096
    14.0094  16.5997

     occupation numbers 
     1.0000   1.0000   1.0000   1.0000   0.0000   0.0000   0.0000   0.0000
     0.0000   0.0000

          k = 0.4500-0.1500 0.6500 (  2264 PWs)   bands (ev):

    -5.8601  -1.1634   1.7858   3.3639   8.5949   9.5338  11.5281  12.4834
    14.6601  15.9622

     occupation numbers 
     1.0000   1.0000   1.0000   1.0000   0.0000   0.0000   0.0000   0.0000
     0.0000   0.0000

          k = 0.4000-0.1000 0.6000 (  2265 PWs)   bands (ev):

    -6.0706  -0.7638   1.8909   3.5383   8.7083   9.5533  10.9871  12.1945
    14.6131  16.0572

     occupation numbers 
     1.0000   1.0000   1.0000   1.0000   0.0000   0.0000   0.0000   0.0000
     0.0000   0.0000

          k = 0.3500-0.0500 0.5500 (  2262 PWs)   bands (ev):

    -6.3113  -0.2801   2.0998   3.7418   8.8005   9.4647  10.5658  11.9621
    14.1475  16.4632

     occupation numbers 
     1.0000   1.0000   1.0000   1.0000   0.0000   0.0000   0.0000   0.0000
     0.0000   0.0000

          k = 0.3000-0.0000 0.5000 (  2262 PWs)   bands (ev):

    -6.5500   0.2205   2.4386   3.9456   8.7709   9.2102  10.5407  11.6267
    13.8392  16.4169

     occupation numbers 
     1.0000   1.0000   1.0000   1.0000   0.0000   0.0000   0.0000   0.0000
     0.0000   0.0000

          k =-0.2000 0.6000 0.0000 (  2259 PWs)   bands (ev):

    -6.3596  -0.0412   2.5523   3.2294   7.7763   8.8293  11.2416  12.7796
    14.6701  17.2414

     occupation numbers 
     1.0000   1.0000   1.0000   1.0000   0.0000   0.0000   0.0000   0.0000
     0.0000   0.0000

          k =-0.2500 0.6500-0.0500 (  2260 PWs)   bands (ev):

    -6.1294  -0.4865   2.2097   3.0595   7.9897   9.0495  11.0398  13.0769
    15.1504  17.3316

     occupation numbers 
     1.0000   1.0000   1.0000   1.0000   0.0000   0.0000   0.0000   0.0000
     0.0000   0.0000

          k = 0.7000-0.3000 0.9000 (  2257 PWs)   bands (ev):

    -5.9009  -0.8970   1.9124   2.9264   8.0818   9.5912  10.8571  13.1581
    15.4793  17.0778

     occupation numbers 
     1.0000   1.0000   1.0000   1.0000   0.0000   0.0000   0.0000   0.0000
     0.0000   0.0000

          k = 0.6500-0.2500 0.8500 (  2255 PWs)   bands (ev):

    -5.7065  -1.2229   1.6660   2.8613   8.1393  10.1624  10.8711  13.1218
    15.0614  17.3826

     occupation numbers 
     1.0000   1.0000   1.0000   1.0000   0.0000   0.0000   0.0000   0.0000
     0.0000   0.0000

          k = 0.6000-0.2000 0.8000 (  2260 PWs)   bands (ev):

    -5.5868  -1.4110   1.4809   2.8723   8.2240  10.2552  11.4663  13.0447
    14.2421  17.4179

     occupation numbers 
     1.0000   1.0000   1.0000   1.0000   0.0000   0.0000   0.0000   0.0000
     0.0000   0.0000

          k = 0.5500-0.1500 0.7500 (  2256 PWs)   bands (ev):

    -5.5754  -1.4230   1.3707   2.9553   8.3514  10.1759  12.0057  13.1148
    13.5191  16.6110

     occupation numbers 
     1.0000   1.0000   1.0000   1.0000   0.0000   0.0000   0.0000   0.0000
     0.0000   0.0000

          k = 0.5000-0.1000 0.7000 (  2258 PWs)   bands (ev):

    -5.6756  -1.2613   1.3533   3.1008   8.5182  10.1057  11.6473  13.1233
    13.7936  15.8115

     occupation numbers 
     1.0000   1.0000   1.0000   1.0000   0.0000   0.0000   0.0000   0.0000
     0.0000   0.0000

          k = 0.4500-0.0500 0.6500 (  2264 PWs)   bands (ev):

    -5.8576  -0.9731   1.4525   3.2951   8.7056  10.0375  10.9621  12.8578
    14.3846  15.4834

     occupation numbers 
     1.0000   1.0000   1.0000   1.0000   0.0000   0.0000   0.0000   0.0000
     0.0000   0.0000

          k = 0.4000 0.0000 0.6000 (  2255 PWs)   bands (ev):

    -6.0808  -0.6267   1.6956   3.5185   8.8618   9.7981  10.5427  12.4789
    14.2627  16.0631

     occupation numbers 
     1.0000   1.0000   1.0000   1.0000   0.0000   0.0000   0.0000   0.0000
     0.0000   0.0000

          k =-0.2000 0.7000-0.0000 (  2266 PWs)   bands (ev):

    -6.0053  -0.6568   2.2923   2.7954   7.5494   8.4055  11.9563  13.7157
    15.4369  17.8095

     occupation numbers 
     1.0000   1.0000   1.0000   1.0000   0.0000   0.0000   0.0000   0.0000
     0.0000   0.0000

          k = 0.7500-0.2500 0.9500 (  2264 PWs)   bands (ev):

    -5.7908  -0.9955   1.9663   2.6429   7.7771   8.7154  11.7508  13.9775
    15.6740  17.4166

     occupation numbers 
     1.0000   1.0000   1.0000   1.0000   0.0000   0.0000   0.0000   0.0000
     0.0000   0.0000

          k = 0.7000-0.2000 0.9000 (  2260 PWs)   bands (ev):

    -5.6026  -1.2672   1.6396   2.5766   7.8788   9.3801  11.5539  13.9457
    15.3051  17.5835

     occupation numbers 
     1.0000   1.0000   1.0000   1.0000   0.0000   0.0000   0.0000   0.0000
     0.0000   0.0000

          k = 0.6500-0.1500 0.8500 (  2258 PWs)   bands (ev):

    -5.4761  -1.4332   1.3609   2.5960   7.9744  10.1871  11.4180  13.6303
    14.6415  17.5502

     occupation numbers 
     1.0000   1.0000   1.0000   1.0000   0.0000   0.0000   0.0000   0.0000
     0.0000   0.0000

          k = 0.6000-0.1000 0.8000 (  2256 PWs)   bands (ev):

    -5.4427  -1.4657   1.1705   2.6901   8.1103  10.8078  11.5385  12.9936
    14.2220  16.6928

     occupation numbers 
     1.0000   1.0000   1.0000   1.0000   0.0000   0.0000   0.0000   0.0000
     0.0000   0.0000

          k = 0.5500-0.0500 0.7500 (  2259 PWs)   bands (ev):

    -5.5108  -1.3691   1.1021   2.8476   8.2918  10.8856  11.6333  12.8490
    13.9166  15.8891

     occupation numbers 
     1.0000   1.0000   1.0000   1.0000   0.0000   0.0000   0.0000   0.0000
     0.0000   0.0000

          k = 0.5000-0.0000 0.7000 (  2263 PWs)   bands (ev):

    -5.6604  -1.1861   1.1882   3.0555   8.5057  10.6920  11.0715  13.4596
    13.6990  15.3950

     occupation numbers 
     1.0000   1.0000   1.0000   1.0000   0.0000   0.0000   0.0000   0.0000
     0.0000   0.0000

          k = 0.8000-0.2000 1.0000 (  2257 PWs)   bands (ev):

    -5.6639  -1.1885   2.1201   2.4553   7.4045   8.0313  12.7596  14.5581
    15.9499  17.7623

     occupation numbers 
     1.0000   1.0000   1.0000   1.0000   0.0000   0.0000   0.0000   0.0000
     0.0000   0.0000

          k = 0.7500-0.1500 0.9500 (  2254 PWs)   bands (ev):

    -5.4955  -1.4037   1.8047   2.3483   7.6318   8.4585  12.5522  14.5737
    15.7054  17.7262

     occupation numbers 
     1.0000   1.0000   1.0000   1.0000   0.0000   0.0000   0.0000   0.0000
     0.0000   0.0000

          k = 0.7000-0.1000 0.9000 (  2263 PWs)   bands (ev):

    -5.3803  -1.5265   1.4596   2.3663   7.7470   9.2296  12.3548  13.9743
    15.3647  17.6604

     occupation numbers 
     1.0000   1.0000   1.0000   1.0000   0.0000   0.0000   0.0000   0.0000
     0.0000   0.0000

          k = 0.6500-0.0500 0.8500 (  2260 PWs)   bands (ev):

    -5.3432  -1.5452   1.1887   2.4658   7.8842  10.1312  12.1810  13.0939
    15.0556  16.8801

     occupation numbers 
     1.0000   1.0000   1.0000   1.0000   0.0000   0.0000   0.0000   0.0000
     0.0000   0.0000

          k = 0.6000 0.0000 0.8000 (  2261 PWs)   bands (ev):

    -5.3914  -1.4777   1.0540   2.6304   8.0683  10.9785  11.8732  12.4733
    14.6003  16.2238

     occupation numbers 
     1.0000   1.0000   1.0000   1.0000   0.0000   0.0000   0.0000   0.0000
     0.0000   0.0000

          k = 0.8000-0.1000 1.0000 (  2257 PWs)   bands (ev):

    -5.3991  -1.5697   2.0402   2.2225   7.3397   7.7721  13.5897  14.9129
    16.1557  17.8808

     occupation numbers 
     1.0000   1.0000   1.0000   1.0000   0.0000   0.0000   0.0000   0.0000
     0.0000   0.0000

          k = 0.7500-0.0500 0.9500 (  2254 PWs)   bands (ev):

    -5.3148  -1.6411   1.7250   2.1957   7.5589   8.3238  13.3784  14.2116
    16.0884  17.7475

     occupation numbers 
     1.0000   1.0000   1.0000   1.0000   0.0000   0.0000   0.0000   0.0000
     0.0000   0.0000

          k = 0.7000 0.0000 0.9000 (  2263 PWs)   bands (ev):

    -5.2960  -1.6221   1.3963   2.2968   7.7017   9.1775  13.0651  13.3573
    15.7391  17.2549

     occupation numbers 
     1.0000   1.0000   1.0000   1.0000   0.0000   0.0000   0.0000   0.0000
     0.0000   0.0000

          k =-0.2000-1.0000 0.0000 (  2254 PWs)   bands (ev):

    -5.2954  -1.7126   2.0340   2.1236   7.3282   7.6740  14.2833  14.5054
    16.4204  17.8304

     occupation numbers 
     1.0000   1.0000   1.0000   1.0000   0.0000   0.0000   0.0000   0.0000
     0.0000   0.0000

          k =-0.3000 0.6000-0.0000 (  2268 PWs)   bands (ev):

    -6.2386  -0.3227   2.1119   3.3773   8.6190   9.3417  10.3735  12.6479
    14.5656  16.8929

     occupation numbers 
     1.0000   1.0000   1.0000   1.0000   0.0000   0.0000   0.0000   0.0000
     0.0000   0.0000

          k = 0.6500-0.3500 0.9500 (  2260 PWs)   bands (ev):

    -6.0054  -0.7287   1.8078   3.1733   8.8179   9.6142  10.2950  12.9734
    14.8506  16.4514

     occupation numbers 
     1.0000   1.0000   1.0000   1.0000   0.0000   0.0000   0.0000   0.0000
     0.0000   0.0000

          k = 0.6000-0.3000 0.9000 (  2260 PWs)   bands (ev):

    -5.7918  -1.0896   1.6108   2.9987   8.8683   9.6534  10.7710  13.1071
    14.7414  16.3414

     occupation numbers 
     1.0000   1.0000   1.0000   1.0000   0.0000   0.0000   0.0000   0.0000
     0.0000   0.0000

          k = 0.5500-0.2500 0.8500 (  2257 PWs)   bands (ev):

    -5.6362  -1.3442   1.5028   2.8829   8.8934   9.5462  11.5276  13.1552
    13.9962  16.9526

     occupation numbers 
     1.0000   1.0000   1.0000   1.0000   0.0000   0.0000   0.0000   0.0000
     0.0000   0.0000

          k = 0.5000-0.2000 0.8000 (  2256 PWs)   bands (ev):

    -5.5782  -1.4369   1.4687   2.8424   8.9050   9.4971  12.0024  13.2166
    13.4443  17.4788

     occupation numbers 
     1.0000   1.0000   1.0000   1.0000   0.0000   0.0000   0.0000   0.0000
     0.0000   0.0000

          k = 0.7000-0.3000 1.0000 (  2260 PWs)   bands (ev):

    -5.9103  -0.8164   1.8736   2.8397   8.4138   9.1262  10.8163  13.6531
    15.1869  16.8904

     occupation numbers 
     1.0000   1.0000   1.0000   1.0000   0.0000   0.0000   0.0000   0.0000
     0.0000   0.0000

          k = 0.6500-0.2500 0.9500 (  2259 PWs)   bands (ev):

    -5.7036  -1.1142   1.6065   2.6491   8.6535   9.5841  10.6186  13.9048
    14.9319  16.7322

     occupation numbers 
     1.0000   1.0000   1.0000   1.0000   0.0000   0.0000   0.0000   0.0000
     0.0000   0.0000

          k = 0.6000-0.2000 0.9000 (  2258 PWs)   bands (ev):

    -5.5422  -1.3381   1.4091   2.5328   8.7581  10.0778  10.7110  13.6308
    14.4629  17.2523

     occupation numbers 
     1.0000   1.0000   1.0000   1.0000   0.0000   0.0000   0.0000   0.0000
     0.0000   0.0000

          k = 0.5500-0.1500 0.8500 (  2256 PWs)   bands (ev):

    -5.4623  -1.4440   1.2840   2.5096   8.8686  10.0562  11.4123  12.8795
    14.2989  17.6391

     occupation numbers 
     1.0000   1.0000   1.0000   1.0000   0.0000   0.0000   0.0000   0.0000
     0.0000   0.0000

          k = 0.5000-0.1000 0.8000 (  2258 PWs)   bands (ev):

    -5.4860  -1.4080   1.2424   2.5787   9.0059   9.9609  11.5028  12.8150
    14.2074  16.9399

     occupation numbers 
     1.0000   1.0000   1.0000   1.0000   0.0000   0.0000   0.0000   0.0000
     0.0000   0.0000

          k = 0.4500-0.0500 0.7500 (  2264 PWs)   bands (ev):

    -5.6059  -1.2452   1.3032   2.7276   9.1474   9.8967  10.7471  13.6052
    14.1224  16.2405

     occupation numbers 
     1.0000   1.0000   1.0000   1.0000   0.0000   0.0000   0.0000   0.0000
     0.0000   0.0000

          k = 0.4000 0.0000 0.7000 (  2257 PWs)   bands (ev):

    -5.7909  -1.0022   1.4875   2.9360   9.1877   9.7493  10.2364  13.5652
    14.5656  16.0041

     occupation numbers 
     1.0000   1.0000   1.0000   1.0000   0.0000   0.0000   0.0000   0.0000
     0.0000   0.0000

          k = 0.7000-0.2000 1.0000 (  2256 PWs)   bands (ev):

    -5.6015  -1.2353   1.7340   2.3872   8.2664   8.8286  11.5267  14.4020
    15.3105  17.1812

     occupation numbers 
     1.0000   1.0000   1.0000   1.0000   0.0000   0.0000   0.0000   0.0000
     0.0000   0.0000

          k = 0.6500-0.1500 0.9500 (  2262 PWs)   bands (ev):

    -5.4493  -1.4112   1.5000   2.2356   8.5147   9.4045  11.3194  13.8519
    15.2551  17.4949

     occupation numbers 
     1.0000   1.0000   1.0000   1.0000   0.0000   0.0000   0.0000   0.0000
     0.0000   0.0000

          k = 0.6000-0.1000 0.9000 (  2259 PWs)   bands (ev):

    -5.3644  -1.4973   1.2890   2.2179   8.6493  10.2010  11.1931  12.9056
    15.2309  17.7118

     occupation numbers 
     1.0000   1.0000   1.0000   1.0000   0.0000   0.0000   0.0000   0.0000
     0.0000   0.0000

          k = 0.5500-0.0500 0.8500 (  2253 PWs)   bands (ev):

    -5.3667  -1.4833   1.1576   2.3109   8.8070  10.6693  11.3254  12.1509
    15.0669  17.0393

     occupation numbers 
     1.0000   1.0000   1.0000   1.0000   0.0000   0.0000   0.0000   0.0000
     0.0000   0.0000

          k = 0.5000 0.0000 0.8000 (  2265 PWs)   bands (ev):

    -5.4545  -1.3868   1.1528   2.4885   8.9939  10.5499  10.8868  12.7150
    14.6772  16.4636

     occupation numbers 
     1.0000   1.0000   1.0000   1.0000   0.0000   0.0000   0.0000   0.0000
     0.0000   0.0000

          k = 0.7000-0.1000 1.0000 (  2257 PWs)   bands (ev):

    -5.3689  -1.5311   1.6985   2.0538   8.1868   8.6178  12.3298  14.0298
    15.8983  17.7212

     occupation numbers 
     1.0000   1.0000   1.0000   1.0000   0.0000   0.0000   0.0000   0.0000
     0.0000   0.0000

          k = 0.6500-0.0500 0.9500 (  2258 PWs)   bands (ev):

    -5.2990  -1.5787   1.4725   1.9926   8.4406   9.2999  12.1210  13.0435
    16.0364  17.7110

     occupation numbers 
     1.0000   1.0000   1.0000   1.0000   0.0000   0.0000   0.0000   0.0000
     0.0000   0.0000

          k = 0.6000 0.0000 0.9000 (  2261 PWs)   bands (ev):

    -5.2991  -1.5527   1.2495   2.1064   8.6096  10.1893  11.8257  12.1948
    15.7501  17.3190

     occupation numbers 
     1.0000   1.0000   1.0000   1.0000   0.0000   0.0000   0.0000   0.0000
     0.0000   0.0000

          k =-0.3000-1.0000 0.0000 (  2250 PWs)   bands (ev):

    -5.2800  -1.6407   1.7294   1.8978   8.1641   8.5415  13.0540  13.3361
    16.3947  17.7007

     occupation numbers 
     1.0000   1.0000   1.0000   1.0000   0.0000   0.0000   0.0000   0.0000
     0.0000   0.0000

          k = 0.6000-0.2000 1.0000 (  2258 PWs)   bands (ev):

    -5.5279  -1.3032   1.3920   2.3956   9.2171   9.7597  10.4290  13.7333
    14.8219  16.7907

     occupation numbers 
     1.0000   1.0000   1.0000   1.0000   0.0000   0.0000   0.0000   0.0000
     0.0000   0.0000

          k = 0.5500-0.1500 0.9500 (  2261 PWs)   bands (ev):

    -5.4036  -1.4371   1.2703   2.2205   9.4149  10.0574  10.6613  12.7691
    15.1220  17.2641

     occupation numbers 
     1.0000   1.0000   1.0000   1.0000   0.0000   0.0000   0.0000   0.0000
     0.0000   0.0000

          k = 0.5000-0.1000 0.9000 (  2256 PWs)   bands (ev):

    -5.3582  -1.4861   1.2317   2.1580   9.4552  10.0452  11.2372  12.0673
    15.2095  17.7490

     occupation numbers 
     1.0000   1.0000   1.0000   1.0000   0.0000   0.0000   0.0000   0.0000
     0.0000   0.0000

          k = 0.6000-0.1000 1.0000 (  2263 PWs)   bands (ev):

    -5.3378  -1.5049   1.4165   1.9617   9.1657   9.6178  11.1164  12.8706
    15.8141  17.5973

     occupation numbers 
     1.0000   1.0000   1.0000   1.0000   0.0000   0.0000   0.0000   0.0000
     0.0000   0.0000

          k = 0.5500-0.0500 0.9500 (  2249 PWs)   bands (ev):

    -5.2891  -1.5373   1.3319   1.8699   9.4263  10.2567  11.0281  11.8817
    16.0291  17.7186

     occupation numbers 
     1.0000   1.0000   1.0000   1.0000   0.0000   0.0000   0.0000   0.0000
     0.0000   0.0000

          k = 0.5000 0.0000 0.9000 (  2251 PWs)   bands (ev):

    -5.3131  -1.5097   1.2563   1.9806   9.5564  10.4468  10.8232  11.8126
    15.7768  17.4545

     occupation numbers 
     1.0000   1.0000   1.0000   1.0000   0.0000   0.0000   0.0000   0.0000
     0.0000   0.0000

          k =-0.4000-1.0000 0.0000 (  2262 PWs)   bands (ev):

    -5.2673  -1.5770   1.5014   1.7357   9.1450   9.5607  11.8128  12.1096
    16.4026  17.6601

     occupation numbers 
     1.0000   1.0000   1.0000   1.0000   0.0000   0.0000   0.0000   0.0000
     0.0000   0.0000

          k =-0.5000-1.0000 0.0000 (  2244 PWs)   bands (ev):

    -5.2624  -1.5512   1.4171   1.6777   9.8792  10.3846  10.9893  11.2140
    16.4085  17.6514

     occupation numbers 
     1.0000   1.0000   1.0000   1.0000   0.0000   0.0000   0.0000   0.0000
     0.0000   0.0000

     highest occupied, lowest unoccupied level (ev):     5.1667    6.5177

     Writing all to output data dir ./SCRATCH/gallium_arsenide.save/

     init_run     :      0.08s CPU      0.09s WALL (       1 calls)
     electrons    :    120.45s CPU    121.60s WALL (       1 calls)

     Called by init_run:
     wfcinit      :      0.00s CPU      0.00s WALL (       1 calls)
     wfcinit:atom :      0.09s CPU      0.07s WALL (     256 calls)
     wfcinit:wfcr :      2.78s CPU      2.87s WALL (     256 calls)
     potinit      :      0.00s CPU      0.01s WALL (       1 calls)
     hinit0       :      0.02s CPU      0.03s WALL (       1 calls)

     Called by electrons:
     c_bands      :    120.45s CPU    121.60s WALL (       1 calls)
     v_of_rho     :      0.00s CPU      0.01s WALL (       1 calls)
     v_h          :      0.00s CPU      0.00s WALL (       1 calls)
     v_xc         :      0.00s CPU      0.00s WALL (       1 calls)

     Called by c_bands:
     init_us_2    :      0.05s CPU      0.06s WALL (     256 calls)
     init_us_2:cp :      0.05s CPU      0.06s WALL (     256 calls)
     cegterg      :    117.48s CPU    118.44s WALL (     831 calls)

     Called by sum_band:

     Called by *egterg:
     cdiaghg      :      1.27s CPU      1.19s WALL (   14496 calls)
     cegterg:over :      7.20s CPU      7.35s WALL (   14240 calls)
     cegterg:upda :      3.00s CPU      3.38s WALL (   14240 calls)
     cegterg:last :      6.42s CPU      6.38s WALL (    9840 calls)
     h_psi        :    100.69s CPU    101.05s WALL (   15327 calls)
     g_psi        :      0.48s CPU      0.55s WALL (   14240 calls)

     Called by h_psi:
     h_psi:calbec :      1.89s CPU      1.89s WALL (   15327 calls)
     vloc_psi     :     97.00s CPU     97.36s WALL (   15327 calls)
     add_vuspsi   :      1.55s CPU      1.43s WALL (   15327 calls)

     General routines
     calbec       :      1.88s CPU      1.83s WALL (   15327 calls)
     fft          :      0.00s CPU      0.00s WALL (       3 calls)
     fftw         :     89.45s CPU     89.62s WALL (  193052 calls)
     davcio       :      0.00s CPU      0.05s WALL (     512 calls)


     PWSCF        :   2m 0.64s CPU   2m 1.90s WALL


   This run was terminated on:  12:42:17  25May2024            

=------------------------------------------------------------------------------=
   JOB DONE.
=------------------------------------------------------------------------------=
