
     Program PWSCF v.7.2 starts on 25May2024 at 11:45:56 

     This program is part of the open-source Quantum ESPRESSO suite
     for quantum simulation of materials; please cite
         "P. Giannozzi et al., J. Phys.:Condens. Matter 21 395502 (2009);
         "P. Giannozzi et al., J. Phys.:Condens. Matter 29 465901 (2017);
         "P. Giannozzi et al., J. Chem. Phys. 152 154105 (2020);
          URL http://www.quantum-espresso.org", 
     in publications or presentations arising from this work. More details at
     http://www.quantum-espresso.org/quote

     Serial version
     8717 MiB available memory on the printing compute node when the environment starts

     Waiting for input...
     Reading input from standard input

     Current dimensions of program PWSCF are:
     Max number of different atomic species (ntypx) = 10
     Max number of k-points (npk) =  40000
     Max angular momentum in pseudopotentials (lmaxx) =  4


     G-vector sticks info
     --------------------
     sticks:   dense  smooth     PW     G-vecs:    dense   smooth      PW
     Sum        1237    1237    361                28643    28643    4573

     Using Slab Decomposition



     bravais-lattice index     =            2
     lattice parameter (alat)  =      10.5831  a.u.
     unit-cell volume          =     296.3351 (a.u.)^3
     number of atoms/cell      =            2
     number of atomic types    =            2
     number of electrons       =        28.00
     number of Kohn-Sham states=           14
     kinetic-energy cutoff     =      80.0000  Ry
     charge density cutoff     =     320.0000  Ry
     scf convergence threshold =      1.0E-08
     mixing beta               =       0.7000
     number of iterations used =            8  plain     mixing
     Exchange-correlation= SLA  PW   NOGX NOGC
                           (   1   4   0   0   0   0   0)

     celldm(1)=  10.583136  celldm(2)=   0.000000  celldm(3)=   0.000000
     celldm(4)=   0.000000  celldm(5)=   0.000000  celldm(6)=   0.000000

     crystal axes: (cart. coord. in units of alat)
               a(1) = (  -0.500000   0.000000   0.500000 )  
               a(2) = (   0.000000   0.500000   0.500000 )  
               a(3) = (  -0.500000   0.500000   0.000000 )  

     reciprocal axes: (cart. coord. in units 2 pi/alat)
               b(1) = ( -1.000000 -1.000000  1.000000 )  
               b(2) = (  1.000000  1.000000  1.000000 )  
               b(3) = ( -1.000000  1.000000 -1.000000 )  


     PseudoPot. # 1 for Ga read from file:
     /home/paolo/project_labqsm/pseudopotentials/Ga.upf
     MD5 check sum: 1297264db1911d3fa8c63c42f023f390
     Pseudo is Norm-conserving + core correction, Zval = 13.0
     Generated using ONCVPSP code by D. R. Hamann
     Using radial grid of 1858 points,  6 beta functions with: 
                l(1) =   0
                l(2) =   0
                l(3) =   1
                l(4) =   1
                l(5) =   2
                l(6) =   2

     PseudoPot. # 2 for As read from file:
     /home/paolo/project_labqsm/pseudopotentials/As.upf
     MD5 check sum: 33c531620a5edaf59d417d4ab58437b1
     Pseudo is Norm-conserving + core correction, Zval = 15.0
     Generated using ONCVPSP code by D. R. Hamann
     Using radial grid of 1326 points,  6 beta functions with: 
                l(1) =   0
                l(2) =   0
                l(3) =   1
                l(4) =   1
                l(5) =   2
                l(6) =   2

     atomic species   valence    mass     pseudopotential
        Ga            13.00    69.72300     Ga( 1.00)
        As            15.00    74.92200     As( 1.00)

     24 Sym. Ops. (no inversion) found



   Cartesian axes

     site n.     atom                  positions (alat units)
         1           Ga  tau(   1) = (   0.0000000   0.0000000   0.0000000  )
         2           As  tau(   2) = (   0.2500000   0.2500000   0.2500000  )

     number of k points=    29
                       cart. coord. in units 2pi/alat
        k(    1) = (   0.0000000   0.0000000   0.0000000), wk =   0.0039062
        k(    2) = (  -0.1250000   0.1250000  -0.1250000), wk =   0.0312500
        k(    3) = (  -0.2500000   0.2500000  -0.2500000), wk =   0.0312500
        k(    4) = (  -0.3750000   0.3750000  -0.3750000), wk =   0.0312500
        k(    5) = (   0.5000000  -0.5000000   0.5000000), wk =   0.0156250
        k(    6) = (   0.0000000   0.2500000   0.0000000), wk =   0.0234375
        k(    7) = (  -0.1250000   0.3750000  -0.1250000), wk =   0.0937500
        k(    8) = (  -0.2500000   0.5000000  -0.2500000), wk =   0.0937500
        k(    9) = (   0.6250000  -0.3750000   0.6250000), wk =   0.0937500
        k(   10) = (   0.5000000  -0.2500000   0.5000000), wk =   0.0937500
        k(   11) = (   0.3750000  -0.1250000   0.3750000), wk =   0.0937500
        k(   12) = (   0.2500000   0.0000000   0.2500000), wk =   0.0468750
        k(   13) = (   0.0000000   0.5000000   0.0000000), wk =   0.0234375
        k(   14) = (  -0.1250000   0.6250000  -0.1250000), wk =   0.0937500
        k(   15) = (   0.7500000  -0.2500000   0.7500000), wk =   0.0937500
        k(   16) = (   0.6250000  -0.1250000   0.6250000), wk =   0.0937500
        k(   17) = (   0.5000000   0.0000000   0.5000000), wk =   0.0468750
        k(   18) = (   0.0000000   0.7500000   0.0000000), wk =   0.0234375
        k(   19) = (   0.8750000  -0.1250000   0.8750000), wk =   0.0937500
        k(   20) = (   0.7500000   0.0000000   0.7500000), wk =   0.0468750
        k(   21) = (   0.0000000  -1.0000000   0.0000000), wk =   0.0117188
        k(   22) = (  -0.2500000   0.5000000   0.0000000), wk =   0.0937500
        k(   23) = (   0.6250000  -0.3750000   0.8750000), wk =   0.1875000
        k(   24) = (   0.5000000  -0.2500000   0.7500000), wk =   0.0937500
        k(   25) = (   0.7500000  -0.2500000   1.0000000), wk =   0.0937500
        k(   26) = (   0.6250000  -0.1250000   0.8750000), wk =   0.1875000
        k(   27) = (   0.5000000   0.0000000   0.7500000), wk =   0.0937500
        k(   28) = (  -0.2500000  -1.0000000   0.0000000), wk =   0.0468750
        k(   29) = (  -0.5000000  -1.0000000   0.0000000), wk =   0.0234375

     Dense  grid:    28643 G-vectors     FFT dimensions: (  45,  45,  45)

     Estimated max dynamical RAM per process >      49.93 MB

     Initial potential from superposition of free atoms

     starting charge      27.9977, renormalised to      28.0000
     Starting wfcs are   18 randomized atomic wfcs

     total cpu time spent up to now is        1.4 secs

     Self-consistent Calculation

     iteration #  1     ecut=    80.00 Ry     beta= 0.70
     Davidson diagonalization with overlap
     ethr =  1.00E-02,  avg # of iterations =  2.0

     Threshold (ethr) on eigenvalues was too large:
     Diagonalizing with lowered threshold

     Davidson diagonalization with overlap
     ethr =  1.57E-04,  avg # of iterations =  3.4

     total cpu time spent up to now is        7.0 secs

     total energy              =    -364.71444020 Ry
     estimated scf accuracy    <       0.04840733 Ry

     iteration #  2     ecut=    80.00 Ry     beta= 0.70
     Davidson diagonalization with overlap
     ethr =  1.73E-04,  avg # of iterations =  3.1

     total cpu time spent up to now is        9.9 secs

     total energy              =    -364.72307842 Ry
     estimated scf accuracy    <       0.00684785 Ry

     iteration #  3     ecut=    80.00 Ry     beta= 0.70
     Davidson diagonalization with overlap
     ethr =  2.45E-05,  avg # of iterations =  3.5

     total cpu time spent up to now is       12.5 secs

     total energy              =    -364.72448354 Ry
     estimated scf accuracy    <       0.00021288 Ry

     iteration #  4     ecut=    80.00 Ry     beta= 0.70
     Davidson diagonalization with overlap
     ethr =  7.60E-07,  avg # of iterations =  2.5

     total cpu time spent up to now is       15.3 secs

     total energy              =    -364.72450990 Ry
     estimated scf accuracy    <       0.00001974 Ry

     iteration #  5     ecut=    80.00 Ry     beta= 0.70
     Davidson diagonalization with overlap
     ethr =  7.05E-08,  avg # of iterations =  4.1

     total cpu time spent up to now is       18.3 secs

     total energy              =    -364.72451595 Ry
     estimated scf accuracy    <       0.00000093 Ry

     iteration #  6     ecut=    80.00 Ry     beta= 0.70
     Davidson diagonalization with overlap
     ethr =  3.33E-09,  avg # of iterations =  3.7

     total cpu time spent up to now is       21.1 secs

     total energy              =    -364.72451624 Ry
     estimated scf accuracy    <       0.00000003 Ry

     iteration #  7     ecut=    80.00 Ry     beta= 0.70
     Davidson diagonalization with overlap
     ethr =  1.00E-10,  avg # of iterations =  3.1

     total cpu time spent up to now is       23.9 secs

     total energy              =    -364.72451623 Ry
     estimated scf accuracy    <       0.00000002 Ry

     iteration #  8     ecut=    80.00 Ry     beta= 0.70
     Davidson diagonalization with overlap
     ethr =  6.44E-11,  avg # of iterations =  2.0

     total cpu time spent up to now is       26.2 secs

     End of self-consistent calculation

          k = 0.0000 0.0000 0.0000 (  3527 PWs)   bands (ev):

   -26.4678 -26.4678 -26.4678 -26.4562 -26.4562  -6.0671  -6.0671  -6.0671
    -5.9814  -5.9814  -4.0983   8.8941   8.8941   8.8941

          k =-0.1250 0.1250-0.1250 (  3599 PWs)   bands (ev):

   -26.4679 -26.4678 -26.4678 -26.4562 -26.4562  -6.0825  -6.0633  -6.0633
    -5.9817  -5.9817  -3.9085   6.8715   8.6461   8.6461

          k =-0.2500 0.2500-0.2500 (  3596 PWs)   bands (ev):

   -26.4678 -26.4674 -26.4674 -26.4562 -26.4562  -6.1155  -6.0548  -6.0548
    -5.9812  -5.9812  -3.3783   4.6354   8.1861   8.1861

          k =-0.3750 0.3750-0.3750 (  3591 PWs)   bands (ev):

   -26.4677 -26.4671 -26.4671 -26.4560 -26.4560  -6.1446  -6.0481  -6.0481
    -5.9790  -5.9790  -2.6643   2.8306   7.8336   7.8336

          k = 0.5000-0.5000 0.5000 (  3600 PWs)   bands (ev):

   -26.4677 -26.4670 -26.4670 -26.4560 -26.4560  -6.1559  -6.0460  -6.0460
    -5.9774  -5.9774  -2.2527   2.0462   7.7073   7.7073

          k = 0.0000 0.2500 0.0000 (  3599 PWs)   bands (ev):

   -26.4681 -26.4676 -26.4676 -26.4563 -26.4561  -6.0909  -6.0596  -6.0596
    -5.9847  -5.9795  -3.8455   6.8521   8.2032   8.2032

          k =-0.1250 0.3750-0.1250 (  3587 PWs)   bands (ev):

   -26.4681 -26.4673 -26.4673 -26.4564 -26.4559  -6.1170  -6.0525  -6.0508
    -5.9874  -5.9778  -3.4275   5.1672   7.6687   7.6952

          k =-0.2500 0.5000-0.2500 (  3566 PWs)   bands (ev):

   -26.4679 -26.4671 -26.4669 -26.4563 -26.4558  -6.1435  -6.0466  -6.0433
    -5.9865  -5.9762  -2.7576   3.3550   7.0465   7.3943

          k = 0.6250-0.3750 0.6250 (  3586 PWs)   bands (ev):

   -26.4677 -26.4670 -26.4668 -26.4561 -26.4559  -6.1580  -6.0438  -6.0407
    -5.9824  -5.9767  -2.1774   2.2130   6.6014   7.3864

          k = 0.5000-0.2500 0.5000 (  3584 PWs)   bands (ev):

   -26.4676 -26.4670 -26.4669 -26.4560 -26.4560  -6.1540  -6.0440  -6.0429
    -5.9804  -5.9794  -2.3238   2.4788   6.4578   7.6644

          k = 0.3750-0.1250 0.3750 (  3582 PWs)   bands (ev):

   -26.4677 -26.4673 -26.4671 -26.4562 -26.4560  -6.1329  -6.0499  -6.0476
    -5.9840  -5.9792  -2.9998   3.9217   6.6919   8.1436

          k = 0.2500 0.0000 0.2500 (  3589 PWs)   bands (ev):

   -26.4679 -26.4676 -26.4674 -26.4563 -26.4561  -6.1038  -6.0588  -6.0551
    -5.9840  -5.9801  -3.6045   5.6726   7.4602   8.6036

          k = 0.0000 0.5000 0.0000 (  3591 PWs)   bands (ev):

   -26.4684 -26.4669 -26.4669 -26.4566 -26.4557  -6.1376  -6.0408  -6.0408
    -5.9945  -5.9748  -3.1351   4.7089   7.1309   7.1309

          k =-0.1250 0.6250-0.1250 (  3574 PWs)   bands (ev):

   -26.4684 -26.4666 -26.4666 -26.4566 -26.4556  -6.1579  -6.0340  -6.0318
    -5.9974  -5.9729  -2.5661   3.4967   6.3712   6.7893

          k = 0.7500-0.2500 0.7500 (  3578 PWs)   bands (ev):

   -26.4681 -26.4666 -26.4664 -26.4564 -26.4556  -6.1680  -6.0343  -6.0284
    -5.9937  -5.9742  -1.9555   2.4484   5.5181   6.7719

          k = 0.6250-0.1250 0.6250 (  3577 PWs)   bands (ev):

   -26.4676 -26.4669 -26.4666 -26.4562 -26.4558  -6.1654  -6.0377  -6.0310
    -5.9870  -5.9792  -1.8558   2.3134   5.0865   7.0800

          k = 0.5000 0.0000 0.5000 (  3583 PWs)   bands (ev):

   -26.4675 -26.4671 -26.4669 -26.4561 -26.4560  -6.1521  -6.0418  -6.0395
    -5.9838  -5.9815  -2.3900   3.1013   5.3799   7.6232

          k = 0.0000 0.7500 0.0000 (  3563 PWs)   bands (ev):

   -26.4688 -26.4662 -26.4662 -26.4567 -26.4553  -6.1753  -6.0214  -6.0214
    -6.0056  -5.9701  -2.1326   2.8329   6.3754   6.3754

          k = 0.8750-0.1250 0.8750 (  3569 PWs)   bands (ev):

   -26.4687 -26.4661 -26.4660 -26.4567 -26.4553  -6.1825  -6.0209  -6.0172
    -6.0045  -5.9703  -1.6496   2.1690   5.6459   6.2870

          k = 0.7500 0.0000 0.7500 (  3568 PWs)   bands (ev):

   -26.4682 -26.4664 -26.4662 -26.4565 -26.4555  -6.1771  -6.0286  -6.0207
    -5.9970  -5.9747  -1.5176   2.0796   4.8637   6.5452

          k = 0.0000-1.0000 0.0000 (  3572 PWs)   bands (ev):

   -26.4689 -26.4659 -26.4659 -26.4568 -26.4552  -6.1893  -6.0131  -6.0131
    -6.0104  -5.9681  -1.4815   1.8842   6.1104   6.1104

          k =-0.2500 0.5000 0.0000 (  3593 PWs)   bands (ev):

   -26.4681 -26.4670 -26.4670 -26.4564 -26.4558  -6.1398  -6.0447  -6.0417
    -5.9904  -5.9761  -2.9321   4.0945   6.3859   7.5369

          k = 0.6250-0.3750 0.8750 (  3577 PWs)   bands (ev):

   -26.4678 -26.4670 -26.4666 -26.4563 -26.4558  -6.1578  -6.0407  -6.0345
    -5.9891  -5.9766  -2.2705   2.8420   5.7091   7.0815

          k = 0.5000-0.2500 0.7500 (  3600 PWs)   bands (ev):

   -26.4676 -26.4671 -26.4665 -26.4562 -26.4558  -6.1645  -6.0400  -6.0318
    -5.9864  -5.9780  -1.8967   2.2179   5.5313   6.8710

          k = 0.7500-0.2500 1.0000 (  3589 PWs)   bands (ev):

   -26.4684 -26.4665 -26.4662 -26.4566 -26.4555  -6.1711  -6.0297  -6.0241
    -5.9989  -5.9727  -2.0111   2.6906   5.7190   6.3088

          k = 0.6250-0.1250 0.8750 (  3583 PWs)   bands (ev):

   -26.4679 -26.4668 -26.4661 -26.4564 -26.4556  -6.1741  -6.0324  -6.0216
    -5.9945  -5.9759  -1.5898   2.1827   5.0704   6.1227

          k = 0.5000 0.0000 0.7500 (  3583 PWs)   bands (ev):

   -26.4676 -26.4672 -26.4662 -26.4563 -26.4557  -6.1686  -6.0367  -6.0253
    -5.9902  -5.9787  -1.7382   2.3588   4.9205   6.4787

          k =-0.2500-1.0000 0.0000 (  3572 PWs)   bands (ev):

   -26.4685 -26.4663 -26.4659 -26.4566 -26.4553  -6.1828  -6.0226  -6.0175
    -6.0016  -5.9718  -1.4498   1.9762   5.6188   5.7122

          k =-0.5000-1.0000 0.0000 (  3552 PWs)   bands (ev):

   -26.4676 -26.4672 -26.4659 -26.4564 -26.4555  -6.1756  -6.0329  -6.0191
    -5.9933  -5.9777  -1.4173   2.0808   5.2056   5.3959

     highest occupied level (ev):     8.8941

!    total energy              =    -364.72451623 Ry
     estimated scf accuracy    <          3.6E-09 Ry

     The total energy is the sum of the following terms:
     one-electron contribution =    -190.06030270 Ry
     hartree contribution      =     113.52607115 Ry
     xc contribution           =     -87.94805839 Ry
     ewald contribution        =    -200.24222629 Ry

     convergence has been achieved in   8 iterations

     Writing all to output data dir ./SCRATCH/gallium_arsenide.save/

     init_run     :      1.31s CPU      1.33s WALL (       1 calls)
     electrons    :     24.47s CPU     24.85s WALL (       1 calls)

     Called by init_run:
     wfcinit      :      1.16s CPU      1.16s WALL (       1 calls)
     potinit      :      0.02s CPU      0.02s WALL (       1 calls)
     hinit0       :      0.12s CPU      0.13s WALL (       1 calls)

     Called by electrons:
     c_bands      :     21.30s CPU     21.68s WALL (       9 calls)
     sum_band     :      3.08s CPU      3.09s WALL (       9 calls)
     v_of_rho     :      0.08s CPU      0.06s WALL (       9 calls)
     mix_rho      :      0.02s CPU      0.03s WALL (       9 calls)

     Called by c_bands:
     init_us_2    :      0.47s CPU      0.46s WALL (     551 calls)
     init_us_2:cp :      0.47s CPU      0.46s WALL (     551 calls)
     cegterg      :     20.22s CPU     20.72s WALL (     261 calls)

     Called by *egterg:
     cdiaghg      :      0.20s CPU      0.15s WALL (    1029 calls)
     h_psi        :     18.06s CPU     18.40s WALL (    1087 calls)
     g_psi        :      0.05s CPU      0.06s WALL (     797 calls)

     Called by h_psi:
     h_psi:calbec :      1.34s CPU      1.41s WALL (    1087 calls)
     vloc_psi     :     15.53s CPU     15.83s WALL (    1087 calls)
     add_vuspsi   :      1.12s CPU      1.00s WALL (    1087 calls)

     General routines
     calbec       :      1.34s CPU      1.41s WALL (    1087 calls)
     fft          :      0.02s CPU      0.03s WALL (      28 calls)
     ffts         :      0.02s CPU      0.01s WALL (       9 calls)
     fftw         :     16.83s CPU     17.03s WALL (   24130 calls)


     PWSCF        :     25.84s CPU     26.28s WALL


   This run was terminated on:  11:46:22  25May2024            

=------------------------------------------------------------------------------=
   JOB DONE.
=------------------------------------------------------------------------------=
