
     Program BANDS v.7.2 starts on 12May2024 at 12:34: 5 

     This program is part of the open-source Quantum ESPRESSO suite
     for quantum simulation of materials; please cite
         "P. Giannozzi et al., J. Phys.:Condens. Matter 21 395502 (2009);
         "P. Giannozzi et al., J. Phys.:Condens. Matter 29 465901 (2017);
         "P. Giannozzi et al., J. Chem. Phys. 152 154105 (2020);
          URL http://www.quantum-espresso.org", 
     in publications or presentations arising from this work. More details at
     http://www.quantum-espresso.org/quote

     Serial version
     8913 MiB available memory on the printing compute node when the environment starts


     Reading xml data from directory:

     ./SCRATCH/silicon.save/

     IMPORTANT: XC functional enforced from input :
     Exchange-correlation= PZ
                           (   1   1   0   0   0   0   0)
     Any further DFT definition will be discarded
     Please, verify this is what you really want


     G-vector sticks info
     --------------------
     sticks:   dense  smooth     PW     G-vecs:    dense   smooth      PW
     Sum         859     859    253                16625    16625    2733

     Using Slab Decomposition

     Reading collected, re-writing distributed wavefunctions
     high-symmetry point:  0.0000 0.0000 1.0000   x coordinate   0.0000
     high-symmetry point:  0.0000 0.0000 0.0000   x coordinate   1.0000
     high-symmetry point: -0.5000 0.5000 0.5000   x coordinate   1.8660
     high-symmetry point: -0.5000 0.0000 1.0000   x coordinate   2.5731
     high-symmetry point: -0.7500 0.0000 0.7500   x coordinate   2.9267
     high-symmetry point:  0.0000 0.0000 0.0000   x coordinate   3.9873

     Plottable bands (eV) written to file bands_silicon.dat.gnu
     Bands written to file bands_silicon.dat

 **************************************************************************

                    xk=(   0.00000,   0.00000,   1.00000  )

     zone border point and non-symmorphic group 
     symmetry decomposition not available

 **************************************************************************

 **************************************************************************

                    xk=(   0.00000,   0.00000,   0.97500  )

     point group C_4v (4mm) 
     there are  5 classes
     the character table:

       E     2C4   C2    2s_v  2s_d 
A_1    1.00  1.00  1.00  1.00  1.00
A_2    1.00  1.00  1.00 -1.00 -1.00
B_1    1.00 -1.00  1.00  1.00 -1.00
B_2    1.00 -1.00  1.00 -1.00  1.00
E      2.00  0.00 -2.00  0.00  0.00

     the symmetry operations in each class and the name of the first element:

     E        1
                                                                 
     2C4      3    4
                                                                 
     C2       2
                                                                 
     2s_v     5    6
                                                                 
     2s_d     7    8
                                                                 

     Band symmetry, C_4v (4mm)  point group:

     e(  1 -  1) =     -1.82142  eV     1   --> A_1  G_1 D_1   
     e(  2 -  2) =     -1.42917  eV     1   --> B_2  G_4 D_2'  
     e(  3 -  4) =      3.31123  eV     2   --> E    G_5 D_5   
     e(  5 -  5) =      6.79724  eV     1   --> A_1  G_1 D_1   
     e(  6 -  6) =      6.88576  eV     1   --> B_2  G_4 D_2'  
     e(  7 -  8) =     16.26830  eV     2   --> E    G_5 D_5   
     e(  9 - 10) =     17.22152  eV     2   --> E    G_5 D_5   

 **************************************************************************

 **************************************************************************

                    xk=(   0.00000,   0.00000,   0.95000  )

     Band symmetry, C_4v (4mm)  point group:

     e(  1 -  1) =     -2.01248  eV     1   --> A_1  G_1 D_1   
     e(  2 -  2) =     -1.22829  eV     1   --> B_2  G_4 D_2'  
     e(  3 -  4) =      3.31875  eV     2   --> E    G_5 D_5   
     e(  5 -  5) =      6.76414  eV     1   --> A_1  G_1 D_1   
     e(  6 -  6) =      6.94138  eV     1   --> B_2  G_4 D_2'  
     e(  7 -  8) =     16.10058  eV     2   --> E    G_5 D_5   
     e(  9 - 10) =     17.39152  eV     2   --> E    G_5 D_5   

 **************************************************************************

 **************************************************************************

                    xk=(   0.00000,   0.00000,   0.92500  )

     Band symmetry, C_4v (4mm)  point group:

     e(  1 -  1) =     -2.19996  eV     1   --> A_1  G_1 D_1   
     e(  2 -  2) =     -1.02444  eV     1   --> B_2  G_4 D_2'  
     e(  3 -  4) =      3.33129  eV     2   --> E    G_5 D_5   
     e(  5 -  5) =      6.73831  eV     1   --> A_1  G_1 D_1   
     e(  6 -  6) =      7.00473  eV     1   --> B_2  G_4 D_2'  
     e(  7 -  8) =     15.89263  eV     2   --> E    G_5 D_5   
     e(  9 - 10) =     17.60289  eV     2   --> E    G_5 D_5   

 **************************************************************************

 **************************************************************************

                    xk=(   0.00000,   0.00000,   0.90000  )

     Band symmetry, C_4v (4mm)  point group:

     e(  1 -  1) =     -2.38374  eV     1   --> A_1  G_1 D_1   
     e(  2 -  2) =     -0.81780  eV     1   --> B_2  G_4 D_2'  
     e(  3 -  4) =      3.34884  eV     2   --> E    G_5 D_5   
     e(  5 -  5) =      6.71965  eV     1   --> A_1  G_1 D_1   
     e(  6 -  6) =      7.07590  eV     1   --> B_2  G_4 D_2'  
     e(  7 -  8) =     15.66850  eV     2   --> E    G_5 D_5   
     e(  9 - 10) =     17.83101  eV     2   --> E    G_5 D_5   

 **************************************************************************

 **************************************************************************

                    xk=(   0.00000,   0.00000,   0.87500  )

     Band symmetry, C_4v (4mm)  point group:

     e(  1 -  1) =     -2.56368  eV     1   --> A_1  G_1 D_1   
     e(  2 -  2) =     -0.60855  eV     1   --> B_2  G_4 D_2'  
     e(  3 -  4) =      3.37137  eV     2   --> E    G_5 D_5   
     e(  5 -  5) =      6.70803  eV     1   --> A_1  G_1 D_1   
     e(  6 -  6) =      7.15499  eV     1   --> B_2  G_4 D_2'  
     e(  7 -  8) =     15.43736  eV     2   --> E    G_5 D_5   
     e(  9 -  9) =     17.66737  eV     1   --> A_2  G_2 D_1'  
     e( 10 - 10) =     18.06579  eV     1   -->   ?

 **************************************************************************

 **************************************************************************

                    xk=(   0.00000,   0.00000,   0.85000  )

     Band symmetry, C_4v (4mm)  point group:

     e(  1 -  1) =     -2.73966  eV     1   --> A_1  G_1 D_1   
     e(  2 -  2) =     -0.39686  eV     1   --> B_2  G_4 D_2'  
     e(  3 -  4) =      3.39889  eV     2   --> E    G_5 D_5   
     e(  5 -  5) =      6.70332  eV     1   --> A_1  G_1 D_1   
     e(  6 -  6) =      7.24207  eV     1   --> B_2  G_4 D_2'  
     e(  7 -  8) =     15.20314  eV     2   --> E    G_5 D_5   
     e(  9 -  9) =     17.46073  eV     1   --> A_2  G_2 D_1'  
     e( 10 - 10) =     17.86020  eV     1   --> B_2  G_4 D_2'  

 **************************************************************************

 **************************************************************************

                    xk=(   0.00000,   0.00000,   0.82500  )

     Band symmetry, C_4v (4mm)  point group:

     e(  1 -  1) =     -2.91156  eV     1   --> A_1  G_1 D_1   
     e(  2 -  2) =     -0.18293  eV     1   --> B_2  G_4 D_2'  
     e(  3 -  4) =      3.43135  eV     2   --> E    G_5 D_5   
     e(  5 -  5) =      6.70542  eV     1   --> A_1  G_1 D_1   
     e(  6 -  6) =      7.33722  eV     1   --> B_2  G_4 D_2'  
     e(  7 -  8) =     14.96772  eV     2   --> E    G_5 D_5   
     e(  9 -  9) =     17.25987  eV     1   --> A_2  G_2 D_1'  
     e( 10 - 10) =     17.61899  eV     1   --> B_2  G_4 D_2'  

 **************************************************************************

 **************************************************************************

                    xk=(   0.00000,   0.00000,   0.80000  )

     Band symmetry, C_4v (4mm)  point group:

     e(  1 -  1) =     -3.07927  eV     1   --> A_1  G_1 D_1   
     e(  2 -  2) =      0.03307  eV     1   --> B_2  G_4 D_2'  
     e(  3 -  4) =      3.46875  eV     2   --> E    G_5 D_5   
     e(  5 -  5) =      6.71417  eV     1   --> A_1  G_1 D_1   
     e(  6 -  6) =      7.44050  eV     1   --> B_2  G_4 D_2'  
     e(  7 -  8) =     14.73210  eV     2   --> E    G_5 D_5   
     e(  9 -  9) =     17.06481  eV     1   --> A_2  G_2 D_1'  
     e( 10 - 10) =     17.37327  eV     1   --> B_2  G_4 D_2'  

 **************************************************************************

 **************************************************************************

                    xk=(   0.00000,   0.00000,   0.77500  )

     Band symmetry, C_4v (4mm)  point group:

     e(  1 -  1) =     -3.24270  eV     1   --> A_1  G_1 D_1   
     e(  2 -  2) =      0.25093  eV     1   --> B_2  G_4 D_2'  
     e(  3 -  4) =      3.51106  eV     2   --> E    G_5 D_5   
     e(  5 -  5) =      6.72946  eV     1   --> A_1  G_1 D_1   
     e(  6 -  6) =      7.55195  eV     1   --> B_2  G_4 D_2'  
     e(  7 -  8) =     14.49685  eV     2   --> E    G_5 D_5   
     e(  9 -  9) =     16.87557  eV     1   --> A_2  G_2 D_1'  
     e( 10 - 10) =     17.12356  eV     1   --> B_2  G_4 D_2'  

 **************************************************************************

 **************************************************************************

                    xk=(   0.00000,   0.00000,   0.75000  )

     Band symmetry, C_4v (4mm)  point group:

     e(  1 -  1) =     -3.40174  eV     1   --> A_1  G_1 D_1   
     e(  2 -  2) =      0.47046  eV     1   --> B_2  G_4 D_2'  
     e(  3 -  4) =      3.55823  eV     2   --> E    G_5 D_5   
     e(  5 -  5) =      6.75115  eV     1   --> A_1  G_1 D_1   
     e(  6 -  6) =      7.67159  eV     1   --> B_2  G_4 D_2'  
     e(  7 -  8) =     14.26231  eV     2   --> E    G_5 D_5   
     e(  9 -  9) =     16.69217  eV     1   --> A_2  G_2 D_1'  
     e( 10 - 10) =     16.87033  eV     1   --> B_2  G_4 D_2'  

 **************************************************************************

 **************************************************************************

                    xk=(   0.00000,   0.00000,   0.72500  )

     Band symmetry, C_4v (4mm)  point group:

     e(  1 -  1) =     -3.55630  eV     1   --> A_1  G_1 D_1   
     e(  2 -  2) =      0.69146  eV     1   --> B_2  G_4 D_2'  
     e(  3 -  4) =      3.61023  eV     2   --> E    G_5 D_5   
     e(  5 -  5) =      6.77908  eV     1   --> A_1  G_1 D_1   
     e(  6 -  6) =      7.79942  eV     1   --> B_2  G_4 D_2'  
     e(  7 -  8) =     14.02870  eV     2   --> E    G_5 D_5   
     e(  9 -  9) =     16.51463  eV     1   --> A_2  G_2 D_1'  
     e( 10 - 10) =     16.61406  eV     1   --> B_2  G_4 D_2'  

 **************************************************************************

 **************************************************************************

                    xk=(   0.00000,   0.00000,   0.70000  )

     Band symmetry, C_4v (4mm)  point group:

     e(  1 -  1) =     -3.70629  eV     1   --> A_1  G_1 D_1   
     e(  2 -  2) =      0.91374  eV     1   --> B_2  G_4 D_2'  
     e(  3 -  4) =      3.66703  eV     2   --> E    G_5 D_5   
     e(  5 -  5) =      6.81312  eV     1   --> A_1  G_1 D_1   
     e(  6 -  6) =      7.93539  eV     1   --> B_2  G_4 D_2'  
     e(  7 -  8) =     13.79616  eV     2   --> E    G_5 D_5   
     e(  9 -  9) =     16.34297  eV     1   --> A_2  G_2 D_1'  
     e( 10 - 10) =     16.35521  eV     1   --> B_2  G_4 D_2'  

 **************************************************************************

 **************************************************************************

                    xk=(   0.00000,   0.00000,   0.67500  )

     Band symmetry, C_4v (4mm)  point group:

     e(  1 -  1) =     -3.85163  eV     1   --> A_1  G_1 D_1   
     e(  2 -  2) =      1.13710  eV     1   --> B_2  G_4 D_2'  
     e(  3 -  4) =      3.72856  eV     2   --> E    G_5 D_5   
     e(  5 -  5) =      6.85311  eV     1   --> A_1  G_1 D_1   
     e(  6 -  6) =      8.07942  eV     1   --> B_2  G_4 D_2'  
     e(  7 -  8) =     13.56478  eV     2   --> E    G_5 D_5   
     e(  9 -  9) =     16.09425  eV     1   --> B_2  G_4 D_2'  
     e( 10 - 10) =     16.17721  eV     1   --> A_2  G_2 D_1'  

 **************************************************************************

 **************************************************************************

                    xk=(   0.00000,   0.00000,   0.65000  )

     Band symmetry, C_4v (4mm)  point group:

     e(  1 -  1) =     -3.99225  eV     1   --> A_1  G_1 D_1   
     e(  2 -  2) =      1.36133  eV     1   --> B_2  G_4 D_2'  
     e(  3 -  4) =      3.79476  eV     2   --> E    G_5 D_5   
     e(  5 -  5) =      6.89888  eV     1   --> A_1  G_1 D_1   
     e(  6 -  6) =      8.23139  eV     1   --> B_2  G_4 D_2'  
     e(  7 -  8) =     13.33463  eV     2   --> E    G_5 D_5   
     e(  9 -  9) =     15.83170  eV     1   --> B_2  G_4 D_2'  
     e( 10 - 10) =     16.01736  eV     1   --> A_2  G_2 D_1'  

 **************************************************************************

 **************************************************************************

                    xk=(   0.00000,   0.00000,   0.62500  )

     Band symmetry, C_4v (4mm)  point group:

     e(  1 -  1) =     -4.12808  eV     1   --> A_1  G_1 D_1   
     e(  2 -  2) =      1.58625  eV     1   --> B_2  G_4 D_2'  
     e(  3 -  4) =      3.86559  eV     2   --> E    G_5 D_5   
     e(  5 -  5) =      6.95024  eV     1   --> A_1  G_1 D_1   
     e(  6 -  6) =      8.39108  eV     1   --> B_2  G_4 D_2'  
     e(  7 -  8) =     13.10579  eV     2   --> E    G_5 D_5   
     e(  9 -  9) =     15.56810  eV     1   --> B_2  G_4 D_2'  
     e( 10 - 10) =     15.86343  eV     1   --> A_2  G_2 D_1'  

 **************************************************************************

 **************************************************************************

                    xk=(   0.00000,   0.00000,   0.60000  )

     Band symmetry, C_4v (4mm)  point group:

     e(  1 -  1) =     -4.25904  eV     1   --> A_1  G_1 D_1   
     e(  2 -  2) =      1.81167  eV     1   --> B_2  G_4 D_2'  
     e(  3 -  4) =      3.94094  eV     2   --> E    G_5 D_5   
     e(  5 -  5) =      7.00701  eV     1   --> A_1  G_1 D_1   
     e(  6 -  6) =      8.55823  eV     1   --> B_2  G_4 D_2'  
     e(  7 -  8) =     12.87830  eV     2   --> E    G_5 D_5   
     e(  9 -  9) =     15.30409  eV     1   --> B_2  G_4 D_2'  
     e( 10 - 10) =     15.71545  eV     1   --> A_2  G_2 D_1'  

 **************************************************************************

 **************************************************************************

                    xk=(   0.00000,   0.00000,   0.57500  )

     Band symmetry, C_4v (4mm)  point group:

     e(  1 -  1) =     -4.38508  eV     1   --> A_1  G_1 D_1   
     e(  2 -  2) =      2.03739  eV     1   --> B_2  G_4 D_2'  
     e(  3 -  4) =      4.02075  eV     2   --> E    G_5 D_5   
     e(  5 -  5) =      7.06898  eV     1   --> A_1  G_1 D_1   
     e(  6 -  6) =      8.73244  eV     1   --> B_2  G_4 D_2'  
     e(  7 -  8) =     12.65226  eV     2   --> E    G_5 D_5   
     e(  9 -  9) =     15.04037  eV     1   --> B_2  G_4 D_2'  
     e( 10 - 10) =     15.57342  eV     1   --> A_2  G_2 D_1'  

 **************************************************************************

 **************************************************************************

                    xk=(   0.00000,   0.00000,   0.55000  )

     Band symmetry, C_4v (4mm)  point group:

     e(  1 -  1) =     -4.50613  eV     1   --> A_1  G_1 D_1   
     e(  2 -  2) =      2.26321  eV     1   --> B_2  G_4 D_2'  
     e(  3 -  4) =      4.10492  eV     2   --> E    G_5 D_5   
     e(  5 -  5) =      7.13591  eV     1   --> A_1  G_1 D_1   
     e(  6 -  6) =      8.91318  eV     1   --> B_2  G_4 D_2'  
     e(  7 -  8) =     12.42773  eV     2   --> E    G_5 D_5   
     e(  9 -  9) =     14.77774  eV     1   --> B_2  G_4 D_2'  
     e( 10 - 10) =     15.43735  eV     1   --> A_2  G_2 D_1'  

 **************************************************************************

 **************************************************************************

                    xk=(   0.00000,   0.00000,   0.52500  )

     Band symmetry, C_4v (4mm)  point group:

     e(  1 -  1) =     -4.62215  eV     1   --> A_1  G_1 D_1   
     e(  2 -  2) =      2.48895  eV     1   --> B_2  G_4 D_2'  
     e(  3 -  4) =      4.19332  eV     2   --> E    G_5 D_5   
     e(  5 -  5) =      7.20756  eV     1   --> A_1  G_1 D_1   
     e(  6 -  6) =      9.09976  eV     1   --> B_2  G_4 D_2'  
     e(  7 -  8) =     12.20482  eV     2   --> E    G_5 D_5   
     e(  9 -  9) =     14.51719  eV     1   --> B_2  G_4 D_2'  
     e( 10 - 10) =     15.30727  eV     1   --> A_2  G_2 D_1'  

 **************************************************************************

 **************************************************************************

                    xk=(   0.00000,   0.00000,   0.50000  )

     Band symmetry, C_4v (4mm)  point group:

     e(  1 -  1) =     -4.73308  eV     1   --> A_1  G_1 D_1   
     e(  2 -  2) =      2.71441  eV     1   --> B_2  G_4 D_2'  
     e(  3 -  4) =      4.28583  eV     2   --> E    G_5 D_5   
     e(  5 -  5) =      7.28366  eV     1   --> A_1  G_1 D_1   
     e(  6 -  6) =      9.29120  eV     1   --> B_2  G_4 D_2'  
     e(  7 -  8) =     11.98366  eV     2   --> E    G_5 D_5   
     e(  9 -  9) =     14.25989  eV     1   --> B_2  G_4 D_2'  
     e( 10 - 10) =     15.18317  eV     1   --> A_2  G_2 D_1'  

 **************************************************************************

 **************************************************************************

                    xk=(   0.00000,   0.00000,   0.47500  )

     Band symmetry, C_4v (4mm)  point group:

     e(  1 -  1) =     -4.83886  eV     1   --> A_1  G_1 D_1   
     e(  2 -  2) =      2.93939  eV     1   --> B_2  G_4 D_2'  
     e(  3 -  4) =      4.38230  eV     2   --> E    G_5 D_5   
     e(  5 -  5) =      7.36388  eV     1   --> A_1  G_1 D_1   
     e(  6 -  6) =      9.48618  eV     1   --> B_2  G_4 D_2'  
     e(  7 -  8) =     11.76441  eV     2   --> E    G_5 D_5   
     e(  9 -  9) =     14.00738  eV     1   --> B_2  G_4 D_2'  
     e( 10 - 10) =     15.06506  eV     1   --> A_2  G_2 D_1'  

 **************************************************************************

 **************************************************************************

                    xk=(   0.00000,   0.00000,   0.45000  )

     Band symmetry, C_4v (4mm)  point group:

     e(  1 -  1) =     -4.93947  eV     1   --> A_1  G_1 D_1   
     e(  2 -  2) =      3.16367  eV     1   --> B_2  G_4 D_2'  
     e(  3 -  4) =      4.48255  eV     2   --> E    G_5 D_5   
     e(  5 -  5) =      7.44788  eV     1   --> A_1  G_1 D_1   
     e(  6 -  6) =      9.68285  eV     1   --> B_2  G_4 D_2'  
     e(  7 -  8) =     11.54725  eV     2   --> E    G_5 D_5   
     e(  9 -  9) =     13.76161  eV     1   --> B_2  G_4 D_2'  
     e( 10 - 10) =     14.95297  eV     1   --> A_2  G_2 D_1'  

 **************************************************************************

 **************************************************************************

                    xk=(   0.00000,   0.00000,   0.42500  )

     Band symmetry, C_4v (4mm)  point group:

     e(  1 -  1) =     -5.03485  eV     1   --> A_1  G_1 D_1   
     e(  2 -  2) =      3.38700  eV     1   --> B_2  G_4 D_2'  
     e(  3 -  4) =      4.58638  eV     2   --> E    G_5 D_5   
     e(  5 -  5) =      7.53527  eV     1   --> A_1  G_1 D_1   
     e(  6 -  6) =      9.87859  eV     1   --> B_2  G_4 D_2'  
     e(  7 -  8) =     11.33241  eV     2   --> E    G_5 D_5   
     e(  9 -  9) =     13.52529  eV     1   --> B_2  G_4 D_2'  
     e( 10 - 10) =     14.84689  eV     1   --> A_2  G_2 D_1'  

 **************************************************************************

 **************************************************************************

                    xk=(   0.00000,   0.00000,   0.40000  )

     Band symmetry, C_4v (4mm)  point group:

     e(  1 -  1) =     -5.12497  eV     1   --> A_1  G_1 D_1   
     e(  2 -  2) =      3.60913  eV     1   --> B_2  G_4 D_2'  
     e(  3 -  4) =      4.69355  eV     2   --> E    G_5 D_5   
     e(  5 -  5) =      7.62560  eV     1   --> A_1  G_1 D_1   
     e(  6 -  6) =     10.06960  eV     1   --> B_2  G_4 D_2'  
     e(  7 -  8) =     11.12016  eV     2   --> E    G_5 D_5   
     e(  9 -  9) =     13.30223  eV     1   --> B_2  G_4 D_2'  
     e( 10 - 10) =     14.74683  eV     1   --> A_2  G_2 D_1'  

 **************************************************************************

 **************************************************************************

                    xk=(   0.00000,   0.00000,   0.37500  )

     Band symmetry, C_4v (4mm)  point group:

     e(  1 -  1) =     -5.20979  eV     1   --> A_1  G_1 D_1   
     e(  2 -  2) =      3.82972  eV     1   --> B_2  G_4 D_2'  
     e(  3 -  4) =      4.80375  eV     2   --> E    G_5 D_5   
     e(  5 -  5) =      7.71837  eV     1   --> A_1  G_1 D_1   
     e(  6 -  6) =     10.25027  eV     1   --> B_2  G_4 D_2'  
     e(  7 -  8) =     10.91082  eV     2   --> E    G_5 D_5   
     e(  9 -  9) =     13.09800  eV     1   --> B_2  G_4 D_2'  
     e( 10 - 10) =     14.65280  eV     1   --> A_2  G_2 D_1'  

 **************************************************************************

 **************************************************************************

                    xk=(   0.00000,   0.00000,   0.35000  )

     Band symmetry, C_4v (4mm)  point group:

     e(  1 -  1) =     -5.28929  eV     1   --> A_1  G_1 D_1   
     e(  2 -  2) =      4.04842  eV     1   --> B_2  G_4 D_2'  
     e(  3 -  4) =      4.91666  eV     2   --> E    G_5 D_5   
     e(  5 -  5) =      7.81300  eV     1   --> A_1  G_1 D_1   
     e(  6 -  6) =     10.41237  eV     1   --> B_2  G_4 D_2'  
     e(  7 -  8) =     10.70480  eV     2   --> E    G_5 D_5   
     e(  9 -  9) =     12.92071  eV     1   --> B_2  G_4 D_2'  
     e( 10 - 10) =     14.56481  eV     1   --> A_2  G_2 D_1'  

 **************************************************************************

 **************************************************************************

                    xk=(   0.00000,   0.00000,   0.32500  )

     Band symmetry, C_4v (4mm)  point group:

     e(  1 -  1) =     -5.36342  eV     1   --> A_1  G_1 D_1   
     e(  2 -  2) =      4.26476  eV     1   --> B_2  G_4 D_2'  
     e(  3 -  4) =      5.03184  eV     2   --> E    G_5 D_5   
     e(  5 -  5) =      7.90883  eV     1   --> A_1  G_1 D_1   
     e(  6 -  7) =     10.50256  eV     2   --> E    G_5 D_5   
     e(  8 -  8) =     10.54440  eV     1   --> B_2  G_4 D_2'  
     e(  9 -  9) =     12.78163  eV     1   --> B_2  G_4 D_2'  
     e( 10 - 10) =     14.48286  eV     1   --> A_2  G_2 D_1'  

 **************************************************************************

 **************************************************************************

                    xk=(   0.00000,   0.00000,   0.30000  )

     Band symmetry, C_4v (4mm)  point group:

     e(  1 -  1) =     -5.43217  eV     1   --> A_1  G_1 D_1   
     e(  2 -  2) =      4.47816  eV     1   --> B_2  G_4 D_2'  
     e(  3 -  4) =      5.14878  eV     2   --> E    G_5 D_5   
     e(  5 -  5) =      8.00511  eV     1   --> A_1  G_1 D_1   
     e(  6 -  7) =     10.30467  eV     2   --> E    G_5 D_5   
     e(  8 -  8) =     10.63239  eV     1   --> B_2  G_4 D_2'  
     e(  9 -  9) =     12.69445  eV     1   --> B_2  G_4 D_2'  
     e( 10 - 10) =     14.40696  eV     1   --> A_2  G_2 D_1'  

 **************************************************************************

 **************************************************************************

                    xk=(   0.00000,   0.00000,   0.27500  )

     Band symmetry, C_4v (4mm)  point group:

     e(  1 -  1) =     -5.49551  eV     1   --> A_1  G_1 D_1   
     e(  2 -  2) =      4.68791  eV     1   --> B_2  G_4 D_2'  
     e(  3 -  4) =      5.26686  eV     2   --> E    G_5 D_5   
     e(  5 -  5) =      8.10098  eV     1   --> A_1  G_1 D_1   
     e(  6 -  7) =     10.11182  eV     2   --> E    G_5 D_5   
     e(  8 -  8) =     10.66422  eV     1   --> B_2  G_4 D_2'  
     e(  9 -  9) =     12.67088  eV     1   --> B_2  G_4 D_2'  
     e( 10 - 10) =     14.33711  eV     1   --> A_2  G_2 D_1'  

 **************************************************************************

 **************************************************************************

                    xk=(   0.00000,   0.00000,   0.25000  )

     Band symmetry, C_4v (4mm)  point group:

     e(  1 -  1) =     -5.55342  eV     1   --> A_1  G_1 D_1   
     e(  2 -  2) =      4.89309  eV     1   --> B_2  G_4 D_2'  
     e(  3 -  4) =      5.38530  eV     2   --> E    G_5 D_5   
     e(  5 -  5) =      8.19546  eV     1   --> A_1  G_1 D_1   
     e(  6 -  7) =      9.92485  eV     2   --> E    G_5 D_5   
     e(  8 -  8) =     10.63675  eV     1   --> B_2  G_4 D_2'  
     e(  9 -  9) =     12.71352  eV     1   --> B_2  G_4 D_2'  
     e( 10 - 10) =     14.27332  eV     1   --> A_2  G_2 D_1'  

 **************************************************************************

 **************************************************************************

                    xk=(   0.00000,   0.00000,   0.22500  )

     Band symmetry, C_4v (4mm)  point group:

     e(  1 -  1) =     -5.60586  eV     1   --> A_1  G_1 D_1   
     e(  2 -  2) =      5.09250  eV     1   --> B_2  G_4 D_2'  
     e(  3 -  4) =      5.50310  eV     2   --> E    G_5 D_5   
     e(  5 -  5) =      8.28745  eV     1   --> A_1  G_1 D_1   
     e(  6 -  7) =      9.74481  eV     2   --> E    G_5 D_5   
     e(  8 -  8) =     10.55863  eV     1   --> B_2  G_4 D_2'  
     e(  9 -  9) =     12.81308  eV     1   --> B_2  G_4 D_2'  
     e( 10 - 10) =     14.21560  eV     1   --> A_2  G_2 D_1'  

 **************************************************************************

 **************************************************************************

                    xk=(   0.00000,   0.00000,   0.20000  )

     Band symmetry, C_4v (4mm)  point group:

     e(  1 -  1) =     -5.65284  eV     1   --> A_1  G_1 D_1   
     e(  2 -  2) =      5.28464  eV     1   --> B_2  G_4 D_2'  
     e(  3 -  4) =      5.61904  eV     2   --> E    G_5 D_5   
     e(  5 -  5) =      8.37571  eV     1   --> A_1  G_1 D_1   
     e(  6 -  7) =      9.57299  eV     2   --> E    G_5 D_5   
     e(  8 -  8) =     10.44518  eV     1   --> B_2  G_4 D_2'  
     e(  9 -  9) =     12.95335  eV     1   --> B_2  G_4 D_2'  
     e( 10 - 10) =     14.16394  eV     1   --> A_2  G_2 D_1'  

 **************************************************************************

 **************************************************************************

                    xk=(   0.00000,   0.00000,   0.17500  )

     Band symmetry, C_4v (4mm)  point group:

     e(  1 -  1) =     -5.69433  eV     1   --> A_1  G_1 D_1   
     e(  2 -  2) =      5.46754  eV     1   --> B_2  G_4 D_2'  
     e(  3 -  4) =      5.73156  eV     2   --> E    G_5 D_5   
     e(  5 -  5) =      8.45887  eV     1   --> A_1  G_1 D_1   
     e(  6 -  7) =      9.41100  eV     2   --> E    G_5 D_5   
     e(  8 -  8) =     10.31179  eV     1   --> B_2  G_4 D_2'  
     e(  9 -  9) =     13.11791  eV     1   --> B_2  G_4 D_2'  
     e( 10 - 10) =     14.11835  eV     1   --> A_2  G_2 D_1'  

 **************************************************************************

 **************************************************************************

                    xk=(   0.00000,   0.00000,   0.15000  )

     Band symmetry, C_4v (4mm)  point group:

     e(  1 -  1) =     -5.73031  eV     1   --> A_1  G_1 D_1   
     e(  2 -  2) =      5.63870  eV     1   --> B_2  G_4 D_2'  
     e(  3 -  4) =      5.83869  eV     2   --> E    G_5 D_5   
     e(  5 -  5) =      8.53547  eV     1   --> A_1  G_1 D_1   
     e(  6 -  7) =      9.26087  eV     2   --> E    G_5 D_5   
     e(  8 -  8) =     10.17113  eV     1   --> B_2  G_4 D_2'  
     e(  9 -  9) =     13.29274  eV     1   --> B_2  G_4 D_2'  
     e( 10 - 10) =     14.07883  eV     1   --> A_2  G_2 D_1'  

 **************************************************************************

 **************************************************************************

                    xk=(   0.00000,   0.00000,   0.12500  )

     Band symmetry, C_4v (4mm)  point group:

     e(  1 -  1) =     -5.76078  eV     1   --> A_1  G_1 D_1   
     e(  2 -  2) =      5.79496  eV     1   --> B_2  G_4 D_2'  
     e(  3 -  4) =      5.93802  eV     2   --> E    G_5 D_5   
     e(  5 -  5) =      8.60396  eV     1   --> A_1  G_1 D_1   
     e(  6 -  7) =      9.12507  eV     2   --> E    G_5 D_5   
     e(  8 -  8) =     10.03326  eV     1   --> B_2  G_4 D_2'  
     e(  9 -  9) =     13.46615  eV     1   --> B_2  G_4 D_2'  
     e( 10 - 10) =     14.04539  eV     1   --> A_2  G_2 D_1'  

 **************************************************************************

 **************************************************************************

                    xk=(   0.00000,   0.00000,   0.10000  )

     Band symmetry, C_4v (4mm)  point group:

     e(  1 -  1) =     -5.78572  eV     1   --> A_1  G_1 D_1   
     e(  2 -  2) =      5.93250  eV     1   --> B_2  G_4 D_2'  
     e(  3 -  4) =      6.02661  eV     2   --> E    G_5 D_5   
     e(  5 -  5) =      8.66276  eV     1   --> A_1  G_1 D_1   
     e(  6 -  7) =      9.00659  eV     2   --> E    G_5 D_5   
     e(  8 -  8) =      9.90651  eV     1   --> B_2  G_4 D_2'  
     e(  9 -  9) =     13.62771  eV     1   --> B_2  G_4 D_2'  
     e( 10 - 10) =     14.01803  eV     1   --> A_2  G_2 D_1'  

 **************************************************************************

 **************************************************************************

                    xk=(   0.00000,   0.00000,   0.07500  )

     Band symmetry, C_4v (4mm)  point group:

     e(  1 -  1) =     -5.80512  eV     1   --> A_1  G_1 D_1   
     e(  2 -  2) =      6.04684  eV     1   --> B_2  G_4 D_2'  
     e(  3 -  4) =      6.10106  eV     2   --> E    G_5 D_5   
     e(  5 -  5) =      8.71037  eV     1   --> A_1  G_1 D_1   
     e(  6 -  7) =      8.90884  eV     2   --> E    G_5 D_5   
     e(  8 -  8) =      9.79826  eV     1   --> B_2  G_4 D_2'  
     e(  9 -  9) =     13.76756  eV     1   --> B_2  G_4 D_2'  
     e( 10 - 10) =     13.99674  eV     1   --> A_2  G_2 D_1'  

 **************************************************************************

 **************************************************************************

                    xk=(   0.00000,   0.00000,   0.05000  )

     Band symmetry, C_4v (4mm)  point group:

     e(  1 -  1) =     -5.81899  eV     1   --> A_1  G_1 D_1   
     e(  2 -  2) =      6.13324  eV     1   --> B_2  G_4 D_2'  
     e(  3 -  4) =      6.15779  eV     2   --> E    G_5 D_5   
     e(  5 -  5) =      8.74547  eV     1   --> A_1  G_1 D_1   
     e(  6 -  7) =      8.83544  eV     2   --> E    G_5 D_5   
     e(  8 -  8) =      9.71511  eV     1   --> B_2  G_4 D_2'  
     e(  9 -  9) =     13.87630  eV     1   --> B_2  G_4 D_2'  
     e( 10 - 10) =     13.98154  eV     1   --> A_2  G_2 D_1'  

 **************************************************************************

 **************************************************************************

                    xk=(   0.00000,   0.00000,   0.02500  )

     Band symmetry, C_4v (4mm)  point group:

     e(  1 -  1) =     -5.82731  eV     1   --> A_1  G_1 D_1   
     e(  2 -  2) =      6.18724  eV     1   --> B_2  G_4 D_2'  
     e(  3 -  4) =      6.19346  eV     2   --> E    G_5 D_5   
     e(  5 -  5) =      8.76699  eV     1   --> A_1  G_1 D_1   
     e(  6 -  7) =      8.78977  eV     2   --> E    G_5 D_5   
     e(  8 -  8) =      9.66264  eV     1   --> B_2  G_4 D_2'  
     e(  9 -  9) =     13.94555  eV     1   --> B_2  G_4 D_2'  
     e( 10 - 10) =     13.97241  eV     1   --> A_2  G_2 D_1'  

 **************************************************************************

 **************************************************************************

                    xk=(   0.00000,   0.00000,   0.00000  )

     point group O_h (m-3m) 
     there are 10 classes
     the character table:

       E     8C3   3C2   6C4   6C2'  i     8S6   3s_h  6S4   6s_d 
A_1g   1.00  1.00  1.00  1.00  1.00  1.00  1.00  1.00  1.00  1.00
A_2g   1.00  1.00  1.00 -1.00 -1.00  1.00  1.00  1.00 -1.00 -1.00
E_g    2.00 -1.00  2.00  0.00  0.00  2.00 -1.00  2.00  0.00  0.00
T_1g   3.00  0.00 -1.00  1.00 -1.00  3.00  0.00 -1.00  1.00 -1.00
T_2g   3.00  0.00 -1.00 -1.00  1.00  3.00  0.00 -1.00 -1.00  1.00
A_1u   1.00  1.00  1.00  1.00  1.00 -1.00 -1.00 -1.00 -1.00 -1.00
A_2u   1.00  1.00  1.00 -1.00 -1.00 -1.00 -1.00 -1.00  1.00  1.00
E_u    2.00 -1.00  2.00  0.00  0.00 -2.00  1.00 -2.00  0.00  0.00
T_1u   3.00  0.00 -1.00  1.00 -1.00 -3.00  0.00  1.00 -1.00  1.00
T_2u   3.00  0.00 -1.00 -1.00  1.00 -3.00  0.00  1.00  1.00 -1.00

     the symmetry operations in each class and the name of the first element:

     E        1
                                                                 
     8C3     17   19   20   18   24   21   22   23
                                                                 
     3C2      2    4    3
                                                                 
     6C4      7    8   15   16   12   11
                                                                 
     6C2'     5    6   14   13   10    9
                                                                 
     i       25
                                                                 
     8S6     41   43   44   42   48   45   46   47
                                                                 
     3s_h    26   28   27
                                                                 
     6S4     31   32   39   40   36   35
                                                                 
     6s_d    29   30   38   37   34   33
                                                                 

     Band symmetry, O_h (m-3m)  point group:

     e(  1 -  1) =     -5.83009  eV     1   --> A_1g G_1   G_1+
     e(  2 -  4) =      6.20564  eV     3   --> T_2g G_25' G_5+
     e(  5 -  7) =      8.77424  eV     3   --> T_1u G_15  G_4-
     e(  8 -  8) =      9.64469  eV     1   --> A_2u G_2'  G_2-
     e(  9 - 10) =     13.96937  eV     2   --> E_u  G_12' G_3-

 **************************************************************************

 **************************************************************************

                    xk=(  -0.01250,   0.01250,   0.01250  )

     point group C_3v (3m)  
     there are  3 classes
     the character table:

       E     2C3   3s_v 
A_1    1.00  1.00  1.00
A_2    1.00  1.00 -1.00
E      2.00 -1.00  0.00

     the symmetry operations in each class and the name of the first element:

     E        1
                                                                 
     2C3      2    3
                                                                 
     3s_v     4    5    6
                                                                 

     Band symmetry, C_3v (3m)   point group:

     e(  1 -  1) =     -5.82801  eV     1   --> A_1  L_1       
     e(  2 -  2) =      6.18089  eV     1   --> A_1  L_1       
     e(  3 -  4) =      6.20200  eV     2   --> E    L_3       
     e(  5 -  6) =      8.77955  eV     2   --> E    L_3       
     e(  7 -  7) =      8.78126  eV     1   --> A_1  L_1       
     e(  8 -  8) =      9.65834  eV     1   --> A_1  L_1       
     e(  9 - 10) =     13.96155  eV     2   --> E    L_3       

 **************************************************************************

 **************************************************************************

                    xk=(  -0.02500,   0.02500,   0.02500  )

     Band symmetry, C_3v (3m)   point group:

     e(  1 -  1) =     -5.82177  eV     1   --> A_1  L_1       
     e(  2 -  2) =      6.10894  eV     1   --> A_1  L_1       
     e(  3 -  4) =      6.19118  eV     2   --> E    L_3       
     e(  5 -  6) =      8.79531  eV     2   --> E    L_3       
     e(  7 -  7) =      8.79905  eV     1   --> A_1  L_1       
     e(  8 -  8) =      9.70032  eV     1   --> A_1  L_1       
     e(  9 - 10) =     13.93860  eV     2   --> E    L_3       

 **************************************************************************

 **************************************************************************

                    xk=(  -0.03750,   0.03750,   0.03750  )

     Band symmetry, C_3v (3m)   point group:

     e(  1 -  1) =     -5.81137  eV     1   --> A_1  L_1       
     e(  2 -  2) =      5.99584  eV     1   --> A_1  L_1       
     e(  3 -  4) =      6.17351  eV     2   --> E    L_3       
     e(  5 -  5) =      8.81975  eV     1   --> A_1  L_1       
     e(  6 -  7) =      8.82109  eV     2   --> E    L_3       
     e(  8 -  8) =      9.77270  eV     1   --> A_1  L_1       
     e(  9 - 10) =     13.90193  eV     2   --> E    L_3       

 **************************************************************************

 **************************************************************************

                    xk=(  -0.05000,   0.05000,   0.05000  )

     Band symmetry, C_3v (3m)   point group:

     e(  1 -  1) =     -5.79682  eV     1   --> A_1  L_1       
     e(  2 -  2) =      5.84924  eV     1   --> A_1  L_1       
     e(  3 -  4) =      6.14952  eV     2   --> E    L_3       
     e(  5 -  5) =      8.83521  eV     1   --> A_1  L_1       
     e(  6 -  7) =      8.85619  eV     2   --> E    L_3       
     e(  8 -  8) =      9.87636  eV     1   --> A_1  L_1       
     e(  9 - 10) =     13.85368  eV     2   --> E    L_3       

 **************************************************************************

 **************************************************************************

                    xk=(  -0.06250,   0.06250,   0.06250  )

     Band symmetry, C_3v (3m)   point group:

     e(  1 -  1) =     -5.77813  eV     1   --> A_1  L_1       
     e(  2 -  2) =      5.67663  eV     1   --> A_1  L_1       
     e(  3 -  4) =      6.11987  eV     2   --> E    L_3       
     e(  5 -  5) =      8.84038  eV     1   --> A_1  L_1       
     e(  6 -  7) =      8.89971  eV     2   --> E    L_3       
     e(  8 -  8) =     10.00936  eV     1   --> A_1  L_1       
     e(  9 - 10) =     13.79639  eV     2   --> E    L_3       

 **************************************************************************

 **************************************************************************

                    xk=(  -0.07500,   0.07500,   0.07500  )

     Band symmetry, C_3v (3m)   point group:

     e(  1 -  1) =     -5.75532  eV     1   --> A_1  L_1       
     e(  2 -  2) =      5.48441  eV     1   --> A_1  L_1       
     e(  3 -  4) =      6.08529  eV     2   --> E    L_3       
     e(  5 -  5) =      8.83389  eV     1   --> A_1  L_1       
     e(  6 -  7) =      8.95058  eV     2   --> E    L_3       
     e(  8 -  8) =     10.16727  eV     1   --> A_1  L_1       
     e(  9 - 10) =     13.73277  eV     2   --> E    L_3       

 **************************************************************************

 **************************************************************************

                    xk=(  -0.08750,   0.08750,   0.08750  )

     Band symmetry, C_3v (3m)   point group:

     e(  1 -  1) =     -5.72838  eV     1   --> A_1  L_1       
     e(  2 -  2) =      5.27766  eV     1   --> A_1  L_1       
     e(  3 -  4) =      6.04654  eV     2   --> E    L_3       
     e(  5 -  5) =      8.81670  eV     1   --> A_1  L_1       
     e(  6 -  7) =      9.00761  eV     2   --> E    L_3       
     e(  8 -  8) =     10.34473  eV     1   --> A_1  L_1       
     e(  9 - 10) =     13.66551  eV     2   --> E    L_3       

 **************************************************************************

 **************************************************************************

                    xk=(  -0.10000,   0.10000,   0.10000  )

     Band symmetry, C_3v (3m)   point group:

     e(  1 -  1) =     -5.69736  eV     1   --> A_1  L_1       
     e(  2 -  2) =      5.06027  eV     1   --> A_1  L_1       
     e(  3 -  4) =      6.00440  eV     2   --> E    L_3       
     e(  5 -  5) =      8.79059  eV     1   --> A_1  L_1       
     e(  6 -  7) =      9.06955  eV     2   --> E    L_3       
     e(  8 -  8) =     10.53672  eV     1   --> A_1  L_1       
     e(  9 - 10) =     13.59720  eV     2   --> E    L_3       

 **************************************************************************

 **************************************************************************

                    xk=(  -0.11250,   0.11250,   0.11250  )

     Band symmetry, C_3v (3m)   point group:

     e(  1 -  1) =     -5.66225  eV     1   --> A_1  L_1       
     e(  2 -  2) =      4.83521  eV     1   --> A_1  L_1       
     e(  3 -  4) =      5.95958  eV     2   --> E    L_3       
     e(  5 -  5) =      8.75745  eV     1   --> A_1  L_1       
     e(  6 -  7) =      9.13506  eV     2   --> E    L_3       
     e(  8 -  8) =     10.73914  eV     1   --> A_1  L_1       
     e(  9 - 10) =     13.53024  eV     2   --> E    L_3       

 **************************************************************************

 **************************************************************************

                    xk=(  -0.12500,   0.12500,   0.12500  )

     Band symmetry, C_3v (3m)   point group:

     e(  1 -  1) =     -5.62310  eV     1   --> A_1  L_1       
     e(  2 -  2) =      4.60474  eV     1   --> A_1  L_1       
     e(  3 -  4) =      5.91275  eV     2   --> E    L_3       
     e(  5 -  5) =      8.71891  eV     1   --> A_1  L_1       
     e(  6 -  7) =      9.20280  eV     2   --> E    L_3       
     e(  8 -  8) =     10.94880  eV     1   --> A_1  L_1       
     e(  9 - 10) =     13.46684  eV     2   --> E    L_3       

 **************************************************************************

 **************************************************************************

                    xk=(  -0.13750,   0.13750,   0.13750  )

     Band symmetry, C_3v (3m)   point group:

     e(  1 -  1) =     -5.57993  eV     1   --> A_1  L_1       
     e(  2 -  2) =      4.37059  eV     1   --> A_1  L_1       
     e(  3 -  4) =      5.86453  eV     2   --> E    L_3       
     e(  5 -  5) =      8.67633  eV     1   --> A_1  L_1       
     e(  6 -  7) =      9.27140  eV     2   --> E    L_3       
     e(  8 -  8) =     11.16329  eV     1   --> A_1  L_1       
     e(  9 - 10) =     13.40910  eV     2   --> E    L_3       

 **************************************************************************

 **************************************************************************

                    xk=(  -0.15000,   0.15000,   0.15000  )

     Band symmetry, C_3v (3m)   point group:

     e(  1 -  1) =     -5.53277  eV     1   --> A_1  L_1       
     e(  2 -  2) =      4.13412  eV     1   --> A_1  L_1       
     e(  3 -  4) =      5.81544  eV     2   --> E    L_3       
     e(  5 -  5) =      8.63081  eV     1   --> A_1  L_1       
     e(  6 -  7) =      9.33946  eV     2   --> E    L_3       
     e(  8 -  8) =     11.38083  eV     1   --> A_1  L_1       
     e(  9 - 10) =     13.35894  eV     2   --> E    L_3       

 **************************************************************************

 **************************************************************************

                    xk=(  -0.16250,   0.16250,   0.16250  )

     Band symmetry, C_3v (3m)   point group:

     e(  1 -  1) =     -5.48166  eV     1   --> A_1  L_1       
     e(  2 -  2) =      3.89640  eV     1   --> A_1  L_1       
     e(  3 -  4) =      5.76597  eV     2   --> E    L_3       
     e(  5 -  5) =      8.58326  eV     1   --> A_1  L_1       
     e(  6 -  7) =      9.40561  eV     2   --> E    L_3       
     e(  8 -  8) =     11.60002  eV     1   --> A_1  L_1       
     e(  9 - 10) =     13.31817  eV     2   --> E    L_3       

 **************************************************************************

 **************************************************************************

                    xk=(  -0.17500,   0.17500,   0.17500  )

     Band symmetry, C_3v (3m)   point group:

     e(  1 -  1) =     -5.42665  eV     1   --> A_1  L_1       
     e(  2 -  2) =      3.65831  eV     1   --> A_1  L_1       
     e(  3 -  4) =      5.71652  eV     2   --> E    L_3       
     e(  5 -  5) =      8.53443  eV     1   --> A_1  L_1       
     e(  6 -  7) =      9.46851  eV     2   --> E    L_3       
     e(  8 -  8) =     11.81984  eV     1   --> A_1  L_1       
     e(  9 - 10) =     13.28845  eV     2   --> E    L_3       

 **************************************************************************

 **************************************************************************

                    xk=(  -0.18750,   0.18750,   0.18750  )

     Band symmetry, C_3v (3m)   point group:

     e(  1 -  1) =     -5.36779  eV     1   --> A_1  L_1       
     e(  2 -  2) =      3.42056  eV     1   --> A_1  L_1       
     e(  3 -  4) =      5.66744  eV     2   --> E    L_3       
     e(  5 -  5) =      8.48494  eV     1   --> A_1  L_1       
     e(  6 -  7) =      9.52691  eV     2   --> E    L_3       
     e(  8 -  8) =     12.03939  eV     1   --> A_1  L_1       
     e(  9 - 10) =     13.27131  eV     2   --> E    L_3       

 **************************************************************************

 **************************************************************************

                    xk=(  -0.20000,   0.20000,   0.20000  )

     Band symmetry, C_3v (3m)   point group:

     e(  1 -  1) =     -5.30515  eV     1   --> A_1  L_1       
     e(  2 -  2) =      3.18376  eV     1   --> A_1  L_1       
     e(  3 -  4) =      5.61905  eV     2   --> E    L_3       
     e(  5 -  5) =      8.43531  eV     1   --> A_1  L_1       
     e(  6 -  7) =      9.57967  eV     2   --> E    L_3       
     e(  8 -  8) =     12.25788  eV     1   --> A_1  L_1       
     e(  9 - 10) =     13.26809  eV     2   --> E    L_3       

 **************************************************************************

 **************************************************************************

                    xk=(  -0.21250,   0.21250,   0.21250  )

     Band symmetry, C_3v (3m)   point group:

     e(  1 -  1) =     -5.23879  eV     1   --> A_1  L_1       
     e(  2 -  2) =      2.94843  eV     1   --> A_1  L_1       
     e(  3 -  4) =      5.57159  eV     2   --> E    L_3       
     e(  5 -  5) =      8.38597  eV     1   --> A_1  L_1       
     e(  6 -  7) =      9.62585  eV     2   --> E    L_3       
     e(  8 -  8) =     12.47453  eV     1   --> A_1  L_1       
     e(  9 - 10) =     13.27988  eV     2   --> E    L_3       

 **************************************************************************

 **************************************************************************

                    xk=(  -0.22500,   0.22500,   0.22500  )

     Band symmetry, C_3v (3m)   point group:

     e(  1 -  1) =     -5.16879  eV     1   --> A_1  L_1       
     e(  2 -  2) =      2.71503  eV     1   --> A_1  L_1       
     e(  3 -  4) =      5.52530  eV     2   --> E    L_3       
     e(  5 -  5) =      8.33727  eV     1   --> A_1  L_1       
     e(  6 -  7) =      9.66476  eV     2   --> E    L_3       
     e(  8 -  8) =     12.68842  eV     1   --> A_1  L_1       
     e(  9 - 10) =     13.30752  eV     2   --> E    L_3       

 **************************************************************************

 **************************************************************************

                    xk=(  -0.23750,   0.23750,   0.23750  )

     Band symmetry, C_3v (3m)   point group:

     e(  1 -  1) =     -5.09526  eV     1   --> A_1  L_1       
     e(  2 -  2) =      2.48397  eV     1   --> A_1  L_1       
     e(  3 -  4) =      5.48037  eV     2   --> E    L_3       
     e(  5 -  5) =      8.28955  eV     1   --> A_1  L_1       
     e(  6 -  7) =      9.69597  eV     2   --> E    L_3       
     e(  8 -  8) =     12.89834  eV     1   --> A_1  L_1       
     e(  9 - 10) =     13.35151  eV     2   --> E    L_3       

 **************************************************************************

 **************************************************************************

                    xk=(  -0.25000,   0.25000,   0.25000  )

     Band symmetry, C_3v (3m)   point group:

     e(  1 -  1) =     -5.01830  eV     1   --> A_1  L_1       
     e(  2 -  2) =      2.25562  eV     1   --> A_1  L_1       
     e(  3 -  4) =      5.43694  eV     2   --> E    L_3       
     e(  5 -  5) =      8.24304  eV     1   --> A_1  L_1       
     e(  6 -  7) =      9.71939  eV     2   --> E    L_3       
     e(  8 -  8) =     13.10252  eV     1   --> A_1  L_1       
     e(  9 - 10) =     13.41204  eV     2   --> E    L_3       

 **************************************************************************

 **************************************************************************

                    xk=(  -0.26250,   0.26250,   0.26250  )

     Band symmetry, C_3v (3m)   point group:

     e(  1 -  1) =     -4.93803  eV     1   --> A_1  L_1       
     e(  2 -  2) =      2.03036  eV     1   --> A_1  L_1       
     e(  3 -  4) =      5.39516  eV     2   --> E    L_3       
     e(  5 -  5) =      8.19797  eV     1   --> A_1  L_1       
     e(  6 -  7) =      9.73519  eV     2   --> E    L_3       
     e(  8 -  8) =     13.29835  eV     1   --> A_1  L_1       
     e(  9 - 10) =     13.48898  eV     2   --> E    L_3       

 **************************************************************************

 **************************************************************************

                    xk=(  -0.27500,   0.27500,   0.27500  )

     Band symmetry, C_3v (3m)   point group:

     e(  1 -  1) =     -4.85462  eV     1   --> A_1  L_1       
     e(  2 -  2) =      1.80853  eV     1   --> A_1  L_1       
     e(  3 -  4) =      5.35515  eV     2   --> E    L_3       
     e(  5 -  5) =      8.15452  eV     1   --> A_1  L_1       
     e(  6 -  7) =      9.74384  eV     2   --> E    L_3       
     e(  8 -  8) =     13.48180  eV     1   --> A_1  L_1       
     e(  9 - 10) =     13.58190  eV     2   --> E    L_3       

 **************************************************************************

 **************************************************************************

                    xk=(  -0.28750,   0.28750,   0.28750  )

     Band symmetry, C_3v (3m)   point group:

     e(  1 -  1) =     -4.76825  eV     1   --> A_1  L_1       
     e(  2 -  2) =      1.59049  eV     1   --> A_1  L_1       
     e(  3 -  4) =      5.31698  eV     2   --> E    L_3       
     e(  5 -  5) =      8.11286  eV     1   --> A_1  L_1       
     e(  6 -  7) =      9.74602  eV     2   --> E    L_3       
     e(  8 -  8) =     13.64687  eV     1   --> A_1  L_1       
     e(  9 - 10) =     13.69016  eV     2   --> E    L_3       

 **************************************************************************

 **************************************************************************

                    xk=(  -0.30000,   0.30000,   0.30000  )

     Band symmetry, C_3v (3m)   point group:

     e(  1 -  1) =     -4.67913  eV     1   --> A_1  L_1       
     e(  2 -  2) =      1.37660  eV     1   --> A_1  L_1       
     e(  3 -  4) =      5.28076  eV     2   --> E    L_3       
     e(  5 -  5) =      8.07311  eV     1   --> A_1  L_1       
     e(  6 -  7) =      9.74253  eV     2   --> E    L_3       
     e(  8 -  8) =     13.78562  eV     1   --> A_1  L_1       
     e(  9 - 10) =     13.81295  eV     2   --> E    L_3       

 **************************************************************************

 **************************************************************************

                    xk=(  -0.31250,   0.31250,   0.31250  )

     Band symmetry, C_3v (3m)   point group:

     e(  1 -  1) =     -4.58753  eV     1   --> A_1  L_1       
     e(  2 -  2) =      1.16727  eV     1   --> A_1  L_1       
     e(  3 -  4) =      5.24654  eV     2   --> E    L_3       
     e(  5 -  5) =      8.03540  eV     1   --> A_1  L_1       
     e(  6 -  7) =      9.73428  eV     2   --> E    L_3       
     e(  8 -  8) =     13.89008  eV     1   --> A_1  L_1       
     e(  9 - 10) =     13.94935  eV     2   --> E    L_3       

 **************************************************************************

 **************************************************************************

                    xk=(  -0.32500,   0.32500,   0.32500  )

     Band symmetry, C_3v (3m)   point group:

     e(  1 -  1) =     -4.49375  eV     1   --> A_1  L_1       
     e(  2 -  2) =      0.96291  eV     1   --> A_1  L_1       
     e(  3 -  4) =      5.21437  eV     2   --> E    L_3       
     e(  5 -  5) =      7.99982  eV     1   --> A_1  L_1       
     e(  6 -  7) =      9.72220  eV     2   --> E    L_3       
     e(  8 -  8) =     13.95663  eV     1   --> A_1  L_1       
     e(  9 - 10) =     14.09842  eV     2   --> E    L_3       

 **************************************************************************

 **************************************************************************

                    xk=(  -0.33750,   0.33750,   0.33750  )

     Band symmetry, C_3v (3m)   point group:

     e(  1 -  1) =     -4.39819  eV     1   --> A_1  L_1       
     e(  2 -  2) =      0.76402  eV     1   --> A_1  L_1       
     e(  3 -  4) =      5.18431  eV     2   --> E    L_3       
     e(  5 -  5) =      7.96644  eV     1   --> A_1  L_1       
     e(  6 -  7) =      9.70720  eV     2   --> E    L_3       
     e(  8 -  8) =     13.98899  eV     1   --> A_1  L_1       
     e(  9 - 10) =     14.25920  eV     2   --> E    L_3       

 **************************************************************************

 **************************************************************************

                    xk=(  -0.35000,   0.35000,   0.35000  )

     Band symmetry, C_3v (3m)   point group:

     e(  1 -  1) =     -4.30131  eV     1   --> A_1  L_1       
     e(  2 -  2) =      0.57116  eV     1   --> A_1  L_1       
     e(  3 -  4) =      5.15638  eV     2   --> E    L_3       
     e(  5 -  5) =      7.93534  eV     1   --> A_1  L_1       
     e(  6 -  7) =      9.69014  eV     2   --> E    L_3       
     e(  8 -  8) =     13.99581  eV     1   --> A_1  L_1       
     e(  9 - 10) =     14.43075  eV     2   --> E    L_3       

 **************************************************************************

 **************************************************************************

                    xk=(  -0.36250,   0.36250,   0.36250  )

     Band symmetry, C_3v (3m)   point group:

     e(  1 -  1) =     -4.20367  eV     1   --> A_1  L_1       
     e(  2 -  2) =      0.38496  eV     1   --> A_1  L_1       
     e(  3 -  4) =      5.13062  eV     2   --> E    L_3       
     e(  5 -  5) =      7.90658  eV     1   --> A_1  L_1       
     e(  6 -  7) =      9.67182  eV     2   --> E    L_3       
     e(  8 -  8) =     13.98611  eV     1   --> A_1  L_1       
     e(  9 - 10) =     14.61218  eV     2   --> E    L_3       

 **************************************************************************

 **************************************************************************

                    xk=(  -0.37500,   0.37500,   0.37500  )

     Band symmetry, C_3v (3m)   point group:

     e(  1 -  1) =     -4.10600  eV     1   --> A_1  L_1       
     e(  2 -  2) =      0.20623  eV     1   --> A_1  L_1       
     e(  3 -  4) =      5.10705  eV     2   --> E    L_3       
     e(  5 -  5) =      7.88019  eV     1   --> A_1  L_1       
     e(  6 -  7) =      9.65294  eV     2   --> E    L_3       
     e(  8 -  8) =     13.96683  eV     1   --> A_1  L_1       
     e(  9 - 10) =     14.80262  eV     2   --> E    L_3       

 **************************************************************************

 **************************************************************************

                    xk=(  -0.38750,   0.38750,   0.38750  )

     Band symmetry, C_3v (3m)   point group:

     e(  1 -  1) =     -4.00918  eV     1   --> A_1  L_1       
     e(  2 -  2) =      0.03589  eV     1   --> A_1  L_1       
     e(  3 -  4) =      5.08569  eV     2   --> E    L_3       
     e(  5 -  5) =      7.85622  eV     1   --> A_1  L_1       
     e(  6 -  7) =      9.63414  eV     2   --> E    L_3       
     e(  8 -  8) =     13.94271  eV     1   --> A_1  L_1       
     e(  9 - 10) =     15.00125  eV     2   --> E    L_3       

 **************************************************************************

 **************************************************************************

                    xk=(  -0.40000,   0.40000,   0.40000  )

     Band symmetry, C_3v (3m)   point group:

     e(  1 -  1) =     -3.91429  eV     1   --> A_1  L_1       
     e(  2 -  2) =     -0.12491  eV     1   --> A_1  L_1       
     e(  3 -  4) =      5.06655  eV     2   --> E    L_3       
     e(  5 -  5) =      7.83470  eV     1   --> A_1  L_1       
     e(  6 -  7) =      9.61599  eV     2   --> E    L_3       
     e(  8 -  8) =     13.91685  eV     1   --> A_1  L_1       
     e(  9 - 10) =     15.20721  eV     2   --> E    L_3       

 **************************************************************************

 **************************************************************************

                    xk=(  -0.41250,   0.41250,   0.41250  )

     Band symmetry, C_3v (3m)   point group:

     e(  1 -  1) =     -3.82268  eV     1   --> A_1  L_1       
     e(  2 -  2) =     -0.27477  eV     1   --> A_1  L_1       
     e(  3 -  4) =      5.04964  eV     2   --> E    L_3       
     e(  5 -  5) =      7.81566  eV     1   --> A_1  L_1       
     e(  6 -  7) =      9.59894  eV     2   --> E    L_3       
     e(  8 -  8) =     13.89130  eV     1   --> A_1  L_1       
     e(  9 - 10) =     15.41959  eV     2   --> E    L_3       

 **************************************************************************

 **************************************************************************

                    xk=(  -0.42500,   0.42500,   0.42500  )

     Band symmetry, C_3v (3m)   point group:

     e(  1 -  1) =     -3.73602  eV     1   --> A_1  L_1       
     e(  2 -  2) =     -0.41200  eV     1   --> A_1  L_1       
     e(  3 -  4) =      5.03498  eV     2   --> E    L_3       
     e(  5 -  5) =      7.79912  eV     1   --> A_1  L_1       
     e(  6 -  7) =      9.58341  eV     2   --> E    L_3       
     e(  8 -  8) =     13.86740  eV     1   --> A_1  L_1       
     e(  9 - 10) =     15.63732  eV     2   --> E    L_3       

 **************************************************************************

 **************************************************************************

                    xk=(  -0.43750,   0.43750,   0.43750  )

     Band symmetry, C_3v (3m)   point group:

     e(  1 -  1) =     -3.65627  eV     1   --> A_1  L_1       
     e(  2 -  2) =     -0.53458  eV     1   --> A_1  L_1       
     e(  3 -  4) =      5.02257  eV     2   --> E    L_3       
     e(  5 -  5) =      7.78510  eV     1   --> A_1  L_1       
     e(  6 -  7) =      9.56973  eV     2   --> E    L_3       
     e(  8 -  8) =     13.84608  eV     1   --> A_1  L_1       
     e(  9 - 10) =     15.85894  eV     2   --> E    L_3       

 **************************************************************************

 **************************************************************************

                    xk=(  -0.45000,   0.45000,   0.45000  )

     Band symmetry, C_3v (3m)   point group:

     e(  1 -  1) =     -3.58576  eV     1   --> A_1  L_1       
     e(  2 -  2) =     -0.64018  eV     1   --> A_1  L_1       
     e(  3 -  4) =      5.01241  eV     2   --> E    L_3       
     e(  5 -  5) =      7.77361  eV     1   --> A_1  L_1       
     e(  6 -  7) =      9.55818  eV     2   --> E    L_3       
     e(  8 -  8) =     13.82797  eV     1   --> A_1  L_1       
     e(  9 - 10) =     16.08214  eV     2   --> E    L_3       

 **************************************************************************

 **************************************************************************

                    xk=(  -0.46250,   0.46250,   0.46250  )

     Band symmetry, C_3v (3m)   point group:

     e(  1 -  1) =     -3.52702  eV     1   --> A_1  L_1       
     e(  2 -  2) =     -0.72624  eV     1   --> A_1  L_1       
     e(  3 -  4) =      5.00450  eV     2   --> E    L_3       
     e(  5 -  5) =      7.76468  eV     1   --> A_1  L_1       
     e(  6 -  7) =      9.54898  eV     2   --> E    L_3       
     e(  8 -  8) =     13.81350  eV     1   --> A_1  L_1       
     e(  9 - 10) =     16.30261  eV     2   --> E    L_3       

 **************************************************************************

 **************************************************************************

                    xk=(  -0.47500,   0.47500,   0.47500  )

     Band symmetry, C_3v (3m)   point group:

     e(  1 -  1) =     -3.48264  eV     1   --> A_1  L_1       
     e(  2 -  2) =     -0.79014  eV     1   --> A_1  L_1       
     e(  3 -  4) =      4.99885  eV     2   --> E    L_3       
     e(  5 -  5) =      7.75828  eV     1   --> A_1  L_1       
     e(  6 -  7) =      9.54229  eV     2   --> E    L_3       
     e(  8 -  8) =     13.80298  eV     1   --> A_1  L_1       
     e(  9 - 10) =     16.51067  eV     2   --> E    L_3       

 **************************************************************************

 **************************************************************************

                    xk=(  -0.48750,   0.48750,   0.48750  )

     Band symmetry, C_3v (3m)   point group:

     e(  1 -  1) =     -3.45493  eV     1   --> A_1  L_1       
     e(  2 -  2) =     -0.82957  eV     1   --> A_1  L_1       
     e(  3 -  4) =      4.99546  eV     2   --> E    L_3       
     e(  5 -  5) =      7.75444  eV     1   --> A_1  L_1       
     e(  6 -  7) =      9.53823  eV     2   --> E    L_3       
     e(  8 -  8) =     13.79659  eV     1   --> A_1  L_1       
     e(  9 - 10) =     16.68115  eV     2   --> E    L_3       

 **************************************************************************

 **************************************************************************

                    xk=(  -0.50000,   0.50000,   0.50000  )

     zone border point and non-symmorphic group 
     symmetry decomposition not available

 **************************************************************************

 **************************************************************************

                    xk=(  -0.50000,   0.48750,   0.51250  )

     zone border point and non-symmorphic group 
     symmetry decomposition not available

 **************************************************************************

 **************************************************************************

                    xk=(  -0.50000,   0.47500,   0.52500  )

     zone border point and non-symmorphic group 
     symmetry decomposition not available

 **************************************************************************

 **************************************************************************

                    xk=(  -0.50000,   0.46250,   0.53750  )

     zone border point and non-symmorphic group 
     symmetry decomposition not available

 **************************************************************************

 **************************************************************************

                    xk=(  -0.50000,   0.45000,   0.55000  )

     zone border point and non-symmorphic group 
     symmetry decomposition not available

 **************************************************************************

 **************************************************************************

                    xk=(  -0.50000,   0.43750,   0.56250  )

     zone border point and non-symmorphic group 
     symmetry decomposition not available

 **************************************************************************

 **************************************************************************

                    xk=(  -0.50000,   0.42500,   0.57500  )

     zone border point and non-symmorphic group 
     symmetry decomposition not available

 **************************************************************************

 **************************************************************************

                    xk=(  -0.50000,   0.41250,   0.58750  )

     zone border point and non-symmorphic group 
     symmetry decomposition not available

 **************************************************************************

 **************************************************************************

                    xk=(  -0.50000,   0.40000,   0.60000  )

     zone border point and non-symmorphic group 
     symmetry decomposition not available

 **************************************************************************

 **************************************************************************

                    xk=(  -0.50000,   0.38750,   0.61250  )

     zone border point and non-symmorphic group 
     symmetry decomposition not available

 **************************************************************************

 **************************************************************************

                    xk=(  -0.50000,   0.37500,   0.62500  )

     zone border point and non-symmorphic group 
     symmetry decomposition not available

 **************************************************************************

 **************************************************************************

                    xk=(  -0.50000,   0.36250,   0.63750  )

     zone border point and non-symmorphic group 
     symmetry decomposition not available

 **************************************************************************

 **************************************************************************

                    xk=(  -0.50000,   0.35000,   0.65000  )

     zone border point and non-symmorphic group 
     symmetry decomposition not available

 **************************************************************************

 **************************************************************************

                    xk=(  -0.50000,   0.33750,   0.66250  )

     zone border point and non-symmorphic group 
     symmetry decomposition not available

 **************************************************************************

 **************************************************************************

                    xk=(  -0.50000,   0.32500,   0.67500  )

     zone border point and non-symmorphic group 
     symmetry decomposition not available

 **************************************************************************

 **************************************************************************

                    xk=(  -0.50000,   0.31250,   0.68750  )

     zone border point and non-symmorphic group 
     symmetry decomposition not available

 **************************************************************************

 **************************************************************************

                    xk=(  -0.50000,   0.30000,   0.70000  )

     zone border point and non-symmorphic group 
     symmetry decomposition not available

 **************************************************************************

 **************************************************************************

                    xk=(  -0.50000,   0.28750,   0.71250  )

     zone border point and non-symmorphic group 
     symmetry decomposition not available

 **************************************************************************

 **************************************************************************

                    xk=(  -0.50000,   0.27500,   0.72500  )

     zone border point and non-symmorphic group 
     symmetry decomposition not available

 **************************************************************************

 **************************************************************************

                    xk=(  -0.50000,   0.26250,   0.73750  )

     zone border point and non-symmorphic group 
     symmetry decomposition not available

 **************************************************************************

 **************************************************************************

                    xk=(  -0.50000,   0.25000,   0.75000  )

     zone border point and non-symmorphic group 
     symmetry decomposition not available

 **************************************************************************

 **************************************************************************

                    xk=(  -0.50000,   0.23750,   0.76250  )

     zone border point and non-symmorphic group 
     symmetry decomposition not available

 **************************************************************************

 **************************************************************************

                    xk=(  -0.50000,   0.22500,   0.77500  )

     zone border point and non-symmorphic group 
     symmetry decomposition not available

 **************************************************************************

 **************************************************************************

                    xk=(  -0.50000,   0.21250,   0.78750  )

     zone border point and non-symmorphic group 
     symmetry decomposition not available

 **************************************************************************

 **************************************************************************

                    xk=(  -0.50000,   0.20000,   0.80000  )

     zone border point and non-symmorphic group 
     symmetry decomposition not available

 **************************************************************************

 **************************************************************************

                    xk=(  -0.50000,   0.18750,   0.81250  )

     zone border point and non-symmorphic group 
     symmetry decomposition not available

 **************************************************************************

 **************************************************************************

                    xk=(  -0.50000,   0.17500,   0.82500  )

     zone border point and non-symmorphic group 
     symmetry decomposition not available

 **************************************************************************

 **************************************************************************

                    xk=(  -0.50000,   0.16250,   0.83750  )

     zone border point and non-symmorphic group 
     symmetry decomposition not available

 **************************************************************************

 **************************************************************************

                    xk=(  -0.50000,   0.15000,   0.85000  )

     zone border point and non-symmorphic group 
     symmetry decomposition not available

 **************************************************************************

 **************************************************************************

                    xk=(  -0.50000,   0.13750,   0.86250  )

     zone border point and non-symmorphic group 
     symmetry decomposition not available

 **************************************************************************

 **************************************************************************

                    xk=(  -0.50000,   0.12500,   0.87500  )

     zone border point and non-symmorphic group 
     symmetry decomposition not available

 **************************************************************************

 **************************************************************************

                    xk=(  -0.50000,   0.11250,   0.88750  )

     zone border point and non-symmorphic group 
     symmetry decomposition not available

 **************************************************************************

 **************************************************************************

                    xk=(  -0.50000,   0.10000,   0.90000  )

     zone border point and non-symmorphic group 
     symmetry decomposition not available

 **************************************************************************

 **************************************************************************

                    xk=(  -0.50000,   0.08750,   0.91250  )

     zone border point and non-symmorphic group 
     symmetry decomposition not available

 **************************************************************************

 **************************************************************************

                    xk=(  -0.50000,   0.07500,   0.92500  )

     zone border point and non-symmorphic group 
     symmetry decomposition not available

 **************************************************************************

 **************************************************************************

                    xk=(  -0.50000,   0.06250,   0.93750  )

     zone border point and non-symmorphic group 
     symmetry decomposition not available

 **************************************************************************

 **************************************************************************

                    xk=(  -0.50000,   0.05000,   0.95000  )

     zone border point and non-symmorphic group 
     symmetry decomposition not available

 **************************************************************************

 **************************************************************************

                    xk=(  -0.50000,   0.03750,   0.96250  )

     zone border point and non-symmorphic group 
     symmetry decomposition not available

 **************************************************************************

 **************************************************************************

                    xk=(  -0.50000,   0.02500,   0.97500  )

     zone border point and non-symmorphic group 
     symmetry decomposition not available

 **************************************************************************

 **************************************************************************

                    xk=(  -0.50000,   0.01250,   0.98750  )

     zone border point and non-symmorphic group 
     symmetry decomposition not available

 **************************************************************************

 **************************************************************************

                    xk=(  -0.50000,   0.00000,   1.00000  )

     zone border point and non-symmorphic group 
     symmetry decomposition not available

 **************************************************************************

 **************************************************************************

                    xk=(  -0.50625,   0.00000,   0.99375  )

     point group C_s (m)    
     there are  2 classes
     the character table:

       E     s    
A'     1.00  1.00
A''    1.00 -1.00

     the symmetry operations in each class and the name of the first element:

     E        1
                                                                 
     s        2
                                                                 

     Band symmetry, C_s (m)     point group:

     e(  1 -  1) =     -1.47830  eV     1   --> A'             
     e(  2 -  2) =     -1.42147  eV     1   --> A''            
     e(  3 -  3) =      2.24328  eV     1   --> A'             
     e(  4 -  4) =      2.28848  eV     1   --> A''            
     e(  5 -  5) =     10.38498  eV     1   --> A''            
     e(  6 -  6) =     10.43940  eV     1   --> A'             
     e(  7 -  7) =     11.21460  eV     1   --> A''            
     e(  8 -  8) =     11.25185  eV     1   --> A'             
     e(  9 -  9) =     16.72707  eV     1   --> A'             
     e( 10 - 10) =     16.83054  eV     1   --> A''            

 **************************************************************************

 **************************************************************************

                    xk=(  -0.51250,   0.00000,   0.98750  )

     Band symmetry, C_s (m)     point group:

     e(  1 -  1) =     -1.50613  eV     1   --> A'             
     e(  2 -  2) =     -1.39442  eV     1   --> A''            
     e(  3 -  3) =      2.22178  eV     1   --> A'             
     e(  4 -  4) =      2.31379  eV     1   --> A''            
     e(  5 -  5) =     10.32613  eV     1   --> A''            
     e(  6 -  6) =     10.45459  eV     1   --> A'             
     e(  7 -  7) =     11.22996  eV     1   --> A''            
     e(  8 -  8) =     11.28426  eV     1   --> A'             
     e(  9 -  9) =     16.67238  eV     1   --> A'             
     e( 10 - 10) =     16.87713  eV     1   --> A''            

 **************************************************************************

 **************************************************************************

                    xk=(  -0.51875,   0.00000,   0.98125  )

     Band symmetry, C_s (m)     point group:

     e(  1 -  1) =     -1.53326  eV     1   --> A'             
     e(  2 -  2) =     -1.36862  eV     1   --> A''            
     e(  3 -  3) =      2.20077  eV     1   --> A'             
     e(  4 -  4) =      2.34114  eV     1   --> A''            
     e(  5 -  5) =     10.24887  eV     1   --> A''            
     e(  6 -  6) =     10.46572  eV     1   --> A'             
     e(  7 -  7) =     11.26543  eV     1   --> A''            
     e(  8 -  8) =     11.32180  eV     1   --> A'             
     e(  9 -  9) =     16.61617  eV     1   --> A'             
     e( 10 - 10) =     16.91918  eV     1   --> A''            

 **************************************************************************

 **************************************************************************

                    xk=(  -0.52500,   0.00000,   0.97500  )

     Band symmetry, C_s (m)     point group:

     e(  1 -  1) =     -1.55968  eV     1   --> A'             
     e(  2 -  2) =     -1.34405  eV     1   --> A''            
     e(  3 -  3) =      2.18025  eV     1   --> A'             
     e(  4 -  4) =      2.37050  eV     1   --> A''            
     e(  5 -  5) =     10.15893  eV     1   --> A''            
     e(  6 -  6) =     10.47317  eV     1   --> A'             
     e(  7 -  7) =     11.31529  eV     1   --> A''            
     e(  8 -  8) =     11.36409  eV     1   --> A'             
     e(  9 -  9) =     16.55854  eV     1   --> A'             
[...]

 **************************************************************************

 **************************************************************************

                    xk=(  -0.35625,   0.00000,   0.35625  )

     Band symmetry, C_2v (mm2)  point group:

     e(  1 -  1) =     -4.73383  eV     1   --> A_1  D_1  S_1  
     e(  2 -  2) =      2.22124  eV     1   --> B_1  D_3  S_3  
     e(  3 -  3) =      3.53211  eV     1   --> A_1  D_1  S_1  
     e(  4 -  4) =      5.54440  eV     1   --> A_2  D_2  S_2  
     e(  5 -  5) =      9.22807  eV     1   --> B_1  D_3  S_3  
     e(  6 -  6) =      9.91907  eV     1   --> B_2  D_4  S_4  
     e(  7 -  7) =     10.17980  eV     1   --> A_1  D_1  S_1  
     e(  8 -  8) =     11.86468  eV     1   --> B_1  D_3  S_3  
     e(  9 -  9) =     12.28586  eV     1   --> A_2  D_2  S_2  
     e( 10 - 10) =     16.05508  eV     1   --> B_1  D_3  S_3  

 **************************************************************************

 **************************************************************************

                    xk=(  -0.33750,   0.00000,   0.33750  )

     Band symmetry, C_2v (mm2)  point group:

     e(  1 -  1) =     -4.84295  eV     1   --> A_1  D_1  S_1  
     e(  2 -  2) =      2.44078  eV     1   --> B_1  D_3  S_3  
     e(  3 -  3) =      3.70533  eV     1   --> A_1  D_1  S_1  
     e(  4 -  4) =      5.62044  eV     1   --> A_2  D_2  S_2  
     e(  5 -  5) =      9.26137  eV     1   --> B_1  D_3  S_3  
     e(  6 -  6) =      9.80231  eV     1   --> B_2  D_4  S_4  
     e(  7 -  7) =     10.05607  eV     1   --> A_1  D_1  S_1  
     e(  8 -  8) =     11.85478  eV     1   --> B_1  D_3  S_3  
     e(  9 -  9) =     12.29853  eV     1   --> A_2  D_2  S_2  
     e( 10 - 10) =     15.67922  eV     1   --> B_1  D_3  S_3  

 **************************************************************************

 **************************************************************************

                    xk=(  -0.31875,   0.00000,   0.31875  )

     Band symmetry, C_2v (mm2)  point group:

     e(  1 -  1) =     -4.94695  eV     1   --> A_1  D_1  S_1  
     e(  2 -  2) =      2.66529  eV     1   --> B_1  D_3  S_3  
     e(  3 -  3) =      3.88176  eV     1   --> A_1  D_1  S_1  
     e(  4 -  4) =      5.69200  eV     1   --> A_2  D_2  S_2  
     e(  5 -  5) =      9.28289  eV     1   --> B_1  D_3  S_3  
     e(  6 -  6) =      9.69173  eV     1   --> B_2  D_4  S_4  
     e(  7 -  7) =      9.93764  eV     1   --> A_1  D_1  S_1  
     e(  8 -  8) =     11.85000  eV     1   --> B_1  D_3  S_3  
     e(  9 -  9) =     12.32571  eV     1   --> A_2  D_2  S_2  
     e( 10 - 10) =     15.32077  eV     1   --> B_1  D_3  S_3  

 **************************************************************************

 **************************************************************************

                    xk=(  -0.30000,   0.00000,   0.30000  )

     Band symmetry, C_2v (mm2)  point group:

     e(  1 -  1) =     -5.04566  eV     1   --> A_1  D_1  S_1  
     e(  2 -  2) =      2.89450  eV     1   --> B_1  D_3  S_3  
     e(  3 -  3) =      4.06069  eV     1   --> A_1  D_1  S_1  
     e(  4 -  4) =      5.75878  eV     1   --> A_2  D_2  S_2  
     e(  5 -  5) =      9.29345  eV     1   --> B_1  D_3  S_3  
     e(  6 -  6) =      9.58735  eV     1   --> B_2  D_4  S_4  
     e(  7 -  7) =      9.82446  eV     1   --> A_1  D_1  S_1  
     e(  8 -  8) =     11.84427  eV     1   --> B_1  D_3  S_3  
     e(  9 -  9) =     12.36740  eV     1   --> A_2  D_2  S_2  
     e( 10 - 10) =     14.98476  eV     1   --> B_1  D_3  S_3  

 **************************************************************************

 **************************************************************************

                    xk=(  -0.28125,   0.00000,   0.28125  )

     Band symmetry, C_2v (mm2)  point group:

     e(  1 -  1) =     -5.13894  eV     1   --> A_1  D_1  S_1  
     e(  2 -  2) =      3.12813  eV     1   --> B_1  D_3  S_3  
     e(  3 -  3) =      4.24138  eV     1   --> A_1  D_1  S_1  
     e(  4 -  4) =      5.82057  eV     1   --> A_2  D_2  S_2  
     e(  5 -  5) =      9.29427  eV     1   --> B_1  D_3  S_3  
     e(  6 -  6) =      9.48921  eV     1   --> B_2  D_4  S_4  
     e(  7 -  7) =      9.71648  eV     1   --> A_1  D_1  S_1  
     e(  8 -  8) =     11.82947  eV     1   --> B_1  D_3  S_3  
     e(  9 -  9) =     12.42345  eV     1   --> A_2  D_2  S_2  
     e( 10 - 10) =     14.67772  eV     1   --> B_1  D_3  S_3  

 **************************************************************************

 **************************************************************************

                    xk=(  -0.26250,   0.00000,   0.26250  )

     Band symmetry, C_2v (mm2)  point group:

     e(  1 -  1) =     -5.22666  eV     1   --> A_1  D_1  S_1  
     e(  2 -  2) =      3.36581  eV     1   --> B_1  D_3  S_3  
     e(  3 -  3) =      4.42297  eV     1   --> A_1  D_1  S_1  
     e(  4 -  4) =      5.87723  eV     1   --> A_2  D_2  S_2  
     e(  5 -  5) =      9.28675  eV     1   --> B_1  D_3  S_3  
     e(  6 -  6) =      9.39731  eV     1   --> B_2  D_4  S_4  
     e(  7 -  7) =      9.61359  eV     1   --> A_1  D_1  S_1  
     e(  8 -  8) =     11.79554  eV     1   --> B_1  D_3  S_3  
     e(  9 -  9) =     12.49352  eV     1   --> A_2  D_2  S_2  
     e( 10 - 10) =     14.40774  eV     1   --> B_1  D_3  S_3  

 **************************************************************************

 **************************************************************************

                    xk=(  -0.24375,   0.00000,   0.24375  )

     Band symmetry, C_2v (mm2)  point group:

     e(  1 -  1) =     -5.30872  eV     1   --> A_1  D_1  S_1  
     e(  2 -  2) =      3.60709  eV     1   --> B_1  D_3  S_3  
     e(  3 -  3) =      4.60450  eV     1   --> A_1  D_1  S_1  
     e(  4 -  4) =      5.92870  eV     1   --> A_2  D_2  S_2  
     e(  5 -  5) =      9.27235  eV     1   --> B_1  D_3  S_3  
     e(  6 -  6) =      9.31168  eV     1   --> B_2  D_4  S_4  
     e(  7 -  7) =      9.51573  eV     1   --> A_1  D_1  S_1  
     e(  8 -  8) =     11.73171  eV     1   --> B_1  D_3  S_3  
     e(  9 -  9) =     12.57711  eV     1   --> A_2  D_2  S_2  
     e( 10 - 10) =     14.18359  eV     1   --> B_1  D_3  S_3  

 **************************************************************************

 **************************************************************************

                    xk=(  -0.22500,   0.00000,   0.22500  )

     Band symmetry, C_2v (mm2)  point group:

     e(  1 -  1) =     -5.38503  eV     1   --> A_1  D_1  S_1  
     e(  2 -  2) =      3.85143  eV     1   --> B_1  D_3  S_3  
     e(  3 -  3) =      4.78491  eV     1   --> A_1  D_1  S_1  
     e(  4 -  4) =      5.97504  eV     1   --> A_2  D_2  S_2  
     e(  5 -  5) =      9.23233  eV     1   --> B_2  D_4  S_4  
     e(  6 -  6) =      9.25244  eV     1   --> B_1  D_3  S_3  
     e(  7 -  7) =      9.42282  eV     1   --> A_1  D_1  S_1  
     e(  8 -  8) =     11.62905  eV     1   --> B_1  D_3  S_3  
     e(  9 -  9) =     12.67346  eV     1   --> A_2  D_2  S_2  
     e( 10 - 10) =     14.01217  eV     1   --> B_1  D_3  S_3  

 **************************************************************************

 **************************************************************************

                    xk=(  -0.20625,   0.00000,   0.20625  )

     Band symmetry, C_2v (mm2)  point group:

     e(  1 -  1) =     -5.45549  eV     1   --> A_1  D_1  S_1  
     e(  2 -  2) =      4.09809  eV     1   --> B_1  D_3  S_3  
     e(  3 -  3) =      4.96296  eV     1   --> A_1  D_1  S_1  
     e(  4 -  4) =      6.01635  eV     1   --> A_2  D_2  S_2  
     e(  5 -  5) =      9.15929  eV     1   --> B_2  D_4  S_4  
     e(  6 -  6) =      9.22817  eV     1   --> B_1  D_3  S_3  
     e(  7 -  7) =      9.33480  eV     1   --> A_1  D_1  S_1  
     e(  8 -  8) =     11.48404  eV     1   --> B_1  D_3  S_3  
     e(  9 -  9) =     12.78158  eV     1   --> A_2  D_2  S_2  
     e( 10 - 10) =     13.89529  eV     1   --> B_1  D_3  S_3  

 **************************************************************************

 **************************************************************************

                    xk=(  -0.18750,   0.00000,   0.18750  )

     Band symmetry, C_2v (mm2)  point group:

     e(  1 -  1) =     -5.52005  eV     1   --> A_1  D_1  S_1  
     e(  2 -  2) =      4.34615  eV     1   --> B_1  D_3  S_3  
     e(  3 -  3) =      5.13725  eV     1   --> A_1  D_1  S_1  
     e(  4 -  4) =      6.05281  eV     1   --> A_2  D_2  S_2  
     e(  5 -  5) =      9.09255  eV     1   --> B_2  D_4  S_4  
     e(  6 -  6) =      9.20042  eV     1   --> B_1  D_3  S_3  
     e(  7 -  7) =      9.25166  eV     1   --> A_1  D_1  S_1  
     e(  8 -  8) =     11.30032  eV     1   --> B_1  D_3  S_3  
     e(  9 -  9) =     12.90017  eV     1   --> A_2  D_2  S_2  
     e( 10 - 10) =     13.82799  eV     1   --> B_1  D_3  S_3  

 **************************************************************************

 **************************************************************************

                    xk=(  -0.16875,   0.00000,   0.16875  )

     Band symmetry, C_2v (mm2)  point group:

     e(  1 -  1) =     -5.57862  eV     1   --> A_1  D_1  S_1  
     e(  2 -  2) =      4.59440  eV     1   --> B_1  D_3  S_3  
     e(  3 -  3) =      5.30616  eV     1   --> A_1  D_1  S_1  
     e(  4 -  4) =      6.08465  eV     1   --> A_2  D_2  S_2  
     e(  5 -  5) =      9.03214  eV     1   --> B_2  D_4  S_4  
     e(  6 -  6) =      9.16969  eV     1   --> B_1  D_3  S_3  
     e(  7 -  7) =      9.17343  eV     1   --> A_1  D_1  S_1  
     e(  8 -  8) =     11.08717  eV     1   --> B_1  D_3  S_3  
     e(  9 -  9) =     13.02757  eV     1   --> A_2  D_2  S_2  
     e( 10 - 10) =     13.80027  eV     1   --> B_1  D_3  S_3  

 **************************************************************************

 **************************************************************************

                    xk=(  -0.15000,   0.00000,   0.15000  )

     Band symmetry, C_2v (mm2)  point group:

     e(  1 -  1) =     -5.63117  eV     1   --> A_1  D_1  S_1  
     e(  2 -  2) =      4.84118  eV     1   --> B_1  D_3  S_3  
     e(  3 -  3) =      5.46786  eV     1   --> A_1  D_1  S_1  
     e(  4 -  4) =      6.11212  eV     1   --> A_2  D_2  S_2  
     e(  5 -  5) =      8.97806  eV     1   --> B_2  D_4  S_4  
     e(  6 -  6) =      9.10027  eV     1   --> A_1  D_1  S_1  
     e(  7 -  7) =      9.13606  eV     1   --> B_1  D_3  S_3  
     e(  8 -  8) =     10.85624  eV     1   --> B_1  D_3  S_3  
     e(  9 -  9) =     13.16165  eV     1   --> A_2  D_2  S_2  
     e( 10 - 10) =     13.80066  eV     1   --> B_1  D_3  S_3  

 **************************************************************************

 **************************************************************************

                    xk=(  -0.13125,   0.00000,   0.13125  )

     Band symmetry, C_2v (mm2)  point group:

     e(  1 -  1) =     -5.67764  eV     1   --> A_1  D_1  S_1  
     e(  2 -  2) =      5.08425  eV     1   --> B_1  D_3  S_3  
     e(  3 -  3) =      5.62023  eV     1   --> A_1  D_1  S_1  
     e(  4 -  4) =      6.13549  eV     1   --> A_2  D_2  S_2  
     e(  5 -  5) =      8.93032  eV     1   --> B_2  D_4  S_4  
     e(  6 -  6) =      9.03247  eV     1   --> A_1  D_1  S_1  
     e(  7 -  7) =      9.09907  eV     1   --> B_1  D_3  S_3  
     e(  8 -  8) =     10.61932  eV     1   --> B_1  D_3  S_3  
     e(  9 -  9) =     13.29973  eV     1   --> A_2  D_2  S_2  
     e( 10 - 10) =     13.81879  eV     1   --> B_1  D_3  S_3  

 **************************************************************************

 **************************************************************************

                    xk=(  -0.11250,   0.00000,   0.11250  )

     Band symmetry, C_2v (mm2)  point group:

     e(  1 -  1) =     -5.71799  eV     1   --> A_1  D_1  S_1  
     e(  2 -  2) =      5.32049  eV     1   --> B_1  D_3  S_3  
     e(  3 -  3) =      5.76089  eV     1   --> A_1  D_1  S_1  
     e(  4 -  4) =      6.15507  eV     1   --> A_2  D_2  S_2  
     e(  5 -  5) =      8.88893  eV     1   --> B_2  D_4  S_4  
     e(  6 -  6) =      8.97049  eV     1   --> A_1  D_1  S_1  
     e(  7 -  7) =      9.05764  eV     1   --> B_1  D_3  S_3  
     e(  8 -  8) =     10.38772  eV     1   --> B_1  D_3  S_3  
     e(  9 -  9) =     13.43838  eV     1   --> A_2  D_2  S_2  
     e( 10 - 10) =     13.84643  eV     1   --> B_1  D_3  S_3  

 **************************************************************************

 **************************************************************************

                    xk=(  -0.09375,   0.00000,   0.09375  )

     Band symmetry, C_2v (mm2)  point group:

     e(  1 -  1) =     -5.75218  eV     1   --> A_1  D_1  S_1  
     e(  2 -  2) =      5.54548  eV     1   --> B_1  D_3  S_3  
     e(  3 -  3) =      5.88719  eV     1   --> A_1  D_1  S_1  
     e(  4 -  4) =      6.17110  eV     1   --> A_2  D_2  S_2  
     e(  5 -  5) =      8.85390  eV     1   --> B_2  D_4  S_4  
     e(  6 -  6) =      8.91506  eV     1   --> A_1  D_1  S_1  
     e(  7 -  7) =      9.01026  eV     1   --> B_1  D_3  S_3  
     e(  8 -  8) =     10.17256  eV     1   --> B_1  D_3  S_3  
     e(  9 -  9) =     13.57321  eV     1   --> A_2  D_2  S_2  
     e( 10 - 10) =     13.87742  eV     1   --> B_1  D_3  S_3  

 **************************************************************************

 **************************************************************************

                    xk=(  -0.07500,   0.00000,   0.07500  )

     Band symmetry, C_2v (mm2)  point group:

     e(  1 -  1) =     -5.78020  eV     1   --> A_1  D_1  S_1  
     e(  2 -  2) =      5.75301  eV     1   --> B_1  D_3  S_3  
     e(  3 -  3) =      5.99628  eV     1   --> A_1  D_1  S_1  
     e(  4 -  4) =      6.18385  eV     1   --> A_2  D_2  S_2  
     e(  5 -  5) =      8.82523  eV     1   --> B_2  D_4  S_4  
     e(  6 -  6) =      8.86712  eV     1   --> A_1  D_1  S_1  
     e(  7 -  7) =      8.95573  eV     1   --> B_1  D_3  S_3  
     e(  8 -  8) =      9.98494  eV     1   --> B_1  D_3  S_3  
     e(  9 -  9) =     13.69876  eV     1   --> A_2  D_2  S_2  
     e( 10 - 10) =     13.90737  eV     1   --> B_1  D_3  S_3  

 **************************************************************************

 **************************************************************************

                    xk=(  -0.05625,   0.00000,   0.05625  )

     Band symmetry, C_2v (mm2)  point group:

     e(  1 -  1) =     -5.80201  eV     1   --> A_1  D_1  S_1  
     e(  2 -  2) =      5.93449  eV     1   --> B_1  D_3  S_3  
     e(  3 -  3) =      6.08522  eV     1   --> A_1  D_1  S_1  
     e(  4 -  4) =      6.19352  eV     1   --> A_2  D_2  S_2  
     e(  5 -  5) =      8.80292  eV     1   --> B_2  D_4  S_4  
     e(  6 -  6) =      8.82786  eV     1   --> A_1  D_1  S_1  
     e(  7 -  7) =      8.89541  eV     1   --> B_1  D_3  S_3  
     e(  8 -  8) =      9.83467  eV     1   --> B_1  D_3  S_3  
     e(  9 -  9) =     13.80838  eV     1   --> A_2  D_2  S_2  
     e( 10 - 10) =     13.93321  eV     1   --> B_1  D_3  S_3  

 **************************************************************************

 **************************************************************************

                    xk=(  -0.03750,   0.00000,   0.03750  )

     Band symmetry, C_2v (mm2)  point group:

     e(  1 -  1) =     -5.81761  eV     1   --> A_1  D_1  S_1  
     e(  2 -  2) =      6.07868  eV     1   --> B_1  D_3  S_3  
     e(  3 -  3) =      6.15122  eV     1   --> A_1  D_1  S_1  
     e(  4 -  4) =      6.20030  eV     1   --> A_2  D_2  S_2  
     e(  5 -  5) =      8.78699  eV     1   --> B_2  D_4  S_4  
     e(  6 -  6) =      8.79856  eV     1   --> A_1  D_1  S_1  
     e(  7 -  7) =      8.83623  eV     1   --> B_1  D_3  S_3  
     e(  8 -  8) =      9.72778  eV     1   --> B_1  D_3  S_3  
     e(  9 -  9) =     13.89463  eV     1   --> A_2  D_2  S_2  
     e( 10 - 10) =     13.95292  eV     1   --> B_1  D_3  S_3  

 **************************************************************************

 **************************************************************************

                    xk=(  -0.01875,   0.00000,   0.01875  )

     Band symmetry, C_2v (mm2)  point group:

     e(  1 -  1) =     -5.82697  eV     1   --> A_1  D_1  S_1  
     e(  2 -  2) =      6.17277  eV     1   --> B_1  D_3  S_3  
     e(  3 -  3) =      6.19190  eV     1   --> A_1  D_1  S_1  
     e(  4 -  4) =      6.20431  eV     1   --> A_2  D_2  S_2  
     e(  5 -  5) =      8.77743  eV     1   --> B_2  D_4  S_4  
     e(  6 -  6) =      8.78040  eV     1   --> A_1  D_1  S_1  
     e(  7 -  7) =      8.79124  eV     1   --> B_1  D_3  S_3  
     e(  8 -  8) =      9.66515  eV     1   --> B_1  D_3  S_3  
     e(  9 -  9) =     13.95016  eV     1   --> A_2  D_2  S_2  
     e( 10 - 10) =     13.96520  eV     1   --> B_1  D_3  S_3  

 **************************************************************************

 **************************************************************************

                    xk=(   0.00000,   0.00000,   0.00000  )

     point group O_h (m-3m) 
     there are 10 classes
     the character table:

       E     8C3   3C2   6C4   6C2'  i     8S6   3s_h  6S4   6s_d 
A_1g   1.00  1.00  1.00  1.00  1.00  1.00  1.00  1.00  1.00  1.00
A_2g   1.00  1.00  1.00 -1.00 -1.00  1.00  1.00  1.00 -1.00 -1.00
E_g    2.00 -1.00  2.00  0.00  0.00  2.00 -1.00  2.00  0.00  0.00
T_1g   3.00  0.00 -1.00  1.00 -1.00  3.00  0.00 -1.00  1.00 -1.00
T_2g   3.00  0.00 -1.00 -1.00  1.00  3.00  0.00 -1.00 -1.00  1.00
A_1u   1.00  1.00  1.00  1.00  1.00 -1.00 -1.00 -1.00 -1.00 -1.00
A_2u   1.00  1.00  1.00 -1.00 -1.00 -1.00 -1.00 -1.00  1.00  1.00
E_u    2.00 -1.00  2.00  0.00  0.00 -2.00  1.00 -2.00  0.00  0.00
T_1u   3.00  0.00 -1.00  1.00 -1.00 -3.00  0.00  1.00 -1.00  1.00
T_2u   3.00  0.00 -1.00 -1.00  1.00 -3.00  0.00  1.00  1.00 -1.00

     the symmetry operations in each class and the name of the first element:

     E        1
                                                                 
     8C3     17   19   20   18   24   21   22   23
                                                                 
     3C2      2    4    3
                                                                 
     6C4      7    8   15   16   12   11
                                                                 
     6C2'     5    6   14   13   10    9
                                                                 
     i       25
                                                                 
     8S6     41   43   44   42   48   45   46   47
                                                                 
     3s_h    26   28   27
                                                                 
     6S4     31   32   39   40   36   35
                                                                 
     6s_d    29   30   38   37   34   33
                                                                 

     Band symmetry, O_h (m-3m)  point group:

     e(  1 -  1) =     -5.83009  eV     1   --> A_1g G_1   G_1+
     e(  2 -  4) =      6.20564  eV     3   --> T_2g G_25' G_5+
     e(  5 -  7) =      8.77424  eV     3   --> T_1u G_15  G_4-
     e(  8 -  8) =      9.64469  eV     1   --> A_2u G_2'  G_2-
     e(  9 - 10) =     13.96937  eV     2   --> E_u  G_12' G_3-

 **************************************************************************

     BANDS        :      5.44s CPU      5.56s WALL


   This run was terminated on:  12:34:11  12May2024            

=------------------------------------------------------------------------------=
   JOB DONE.
=------------------------------------------------------------------------------=
