
     Program PWSCF v.7.2 starts on 12May2024 at 12:32:23 

     This program is part of the open-source Quantum ESPRESSO suite
     for quantum simulation of materials; please cite
         "P. Giannozzi et al., J. Phys.:Condens. Matter 21 395502 (2009);
         "P. Giannozzi et al., J. Phys.:Condens. Matter 29 465901 (2017);
         "P. Giannozzi et al., J. Chem. Phys. 152 154105 (2020);
          URL http://www.quantum-espresso.org", 
     in publications or presentations arising from this work. More details at
     http://www.quantum-espresso.org/quote

     Serial version
     8739 MiB available memory on the printing compute node when the environment starts

     Waiting for input...
     Reading input from standard input

     Current dimensions of program PWSCF are:
     Max number of different atomic species (ntypx) = 10
     Max number of k-points (npk) =  40000
     Max angular momentum in pseudopotentials (lmaxx) =  4

     Atomic positions and unit cell read from directory:
     ./SCRATCH/silicon.save/



     G-vector sticks info
     --------------------
     sticks:   dense  smooth     PW     G-vecs:    dense   smooth      PW
     Sum         859     859    253                16625    16625    2733

     Using Slab Decomposition



     bravais-lattice index     =            2
     lattice parameter (alat)  =      10.2079  a.u.
     unit-cell volume          =     265.9215 (a.u.)^3
     number of atoms/cell      =            2
     number of atomic types    =            1
     number of electrons       =         8.00
     number of Kohn-Sham states=           10
     kinetic-energy cutoff     =      60.0000  Ry
     charge density cutoff     =     240.0000  Ry
     Exchange-correlation=  SLA  PZ   NOGX NOGC
                           (   1   1   0   0   0   0   0)

     celldm(1)=  10.207933  celldm(2)=   0.000000  celldm(3)=   0.000000
     celldm(4)=   0.000000  celldm(5)=   0.000000  celldm(6)=   0.000000

     crystal axes: (cart. coord. in units of alat)
               a(1) = (  -0.500000   0.000000   0.500000 )  
               a(2) = (   0.000000   0.500000   0.500000 )  
               a(3) = (  -0.500000   0.500000   0.000000 )  

     reciprocal axes: (cart. coord. in units 2 pi/alat)
               b(1) = ( -1.000000 -1.000000  1.000000 )  
               b(2) = (  1.000000  1.000000  1.000000 )  
               b(3) = ( -1.000000  1.000000 -1.000000 )  


     PseudoPot. # 1 for Si read from file:
     /home/paolo/project_labqsm/pseudopotentials/Si.pz-vbc.UPF
     MD5 check sum: dc3b11d017da532b29132e08c0a6883c
     Pseudo is Norm-conserving, Zval =  4.0
     Generated by new atomic code, or converted to UPF format
     Using radial grid of  431 points,  2 beta functions with: 
                l(1) =   0
                l(2) =   1

     atomic species   valence    mass     pseudopotential
        Si             4.00    12.01100     Si( 1.00)

     48 Sym. Ops., with inversion, found (24 have fractional translation)


                                    s                        frac. trans.

      isym =  1     identity                                     

 cryst.   s( 1) = (     1          0          0      )
                  (     0          1          0      )
                  (     0          0          1      )

 cart.    s( 1) = (  1.0000000  0.0000000  0.0000000 )
                  (  0.0000000  1.0000000  0.0000000 )
                  (  0.0000000  0.0000000  1.0000000 )


      isym =  2     180 deg rotation - cart. axis [0,0,1]        

 cryst.   s( 2) = (     0          1         -1      )
                  (     1          0         -1      )
                  (     0          0         -1      )

 cart.    s( 2) = ( -1.0000000  0.0000000  0.0000000 )
                  (  0.0000000 -1.0000000  0.0000000 )
                  (  0.0000000  0.0000000  1.0000000 )


      isym =  3     180 deg rotation - cart. axis [0,1,0]        

 cryst.   s( 3) = (    -1          0          0      )
                  (    -1          0          1      )
                  (    -1          1          0      )

 cart.    s( 3) = ( -1.0000000  0.0000000  0.0000000 )
                  (  0.0000000  1.0000000  0.0000000 )
                  (  0.0000000  0.0000000 -1.0000000 )


      isym =  4     180 deg rotation - cart. axis [1,0,0]        

 cryst.   s( 4) = (     0         -1          1      )
                  (     0         -1          0      )
                  (     1         -1          0      )

 cart.    s( 4) = (  1.0000000  0.0000000  0.0000000 )
                  (  0.0000000 -1.0000000  0.0000000 )
                  (  0.0000000  0.0000000 -1.0000000 )


      isym =  5     180 deg rotation - cart. axis [1,1,0]        

 cryst.   s( 5) = (     0         -1          0      )    f =(  0.2500000 )
                  (    -1          0          0      )       (  0.2500000 )
                  (     0          0         -1      )       (  0.2500000 )

 cart.    s( 5) = (  0.0000000  1.0000000  0.0000000 )    f =( -0.2500000 )
                  (  1.0000000  0.0000000  0.0000000 )       (  0.2500000 )
                  (  0.0000000  0.0000000 -1.0000000 )       (  0.2500000 )


      isym =  6     180 deg rotation - cart. axis [1,-1,0]       

 cryst.   s( 6) = (    -1          0          1      )    f =(  0.2500000 )
                  (     0         -1          1      )       (  0.2500000 )
                  (     0          0          1      )       (  0.2500000 )

 cart.    s( 6) = (  0.0000000 -1.0000000  0.0000000 )    f =( -0.2500000 )
                  ( -1.0000000  0.0000000  0.0000000 )       (  0.2500000 )
                  (  0.0000000  0.0000000 -1.0000000 )       (  0.2500000 )


      isym =  7      90 deg rotation - cart. axis [0,0,-1]       

 cryst.   s( 7) = (     0          1          0      )    f =(  0.2500000 )
                  (     0          1         -1      )       (  0.2500000 )
                  (    -1          1          0      )       (  0.2500000 )

 cart.    s( 7) = (  0.0000000  1.0000000  0.0000000 )    f =( -0.2500000 )
                  ( -1.0000000  0.0000000  0.0000000 )       (  0.2500000 )
                  (  0.0000000  0.0000000  1.0000000 )       (  0.2500000 )


      isym =  8      90 deg rotation - cart. axis [0,0,1]        

 cryst.   s( 8) = (     1          0         -1      )    f =(  0.2500000 )
                  (     1          0          0      )       (  0.2500000 )
                  (     1         -1          0      )       (  0.2500000 )

 cart.    s( 8) = (  0.0000000 -1.0000000  0.0000000 )    f =( -0.2500000 )
                  (  1.0000000  0.0000000  0.0000000 )       (  0.2500000 )
                  (  0.0000000  0.0000000  1.0000000 )       (  0.2500000 )


      isym =  9     180 deg rotation - cart. axis [1,0,1]        

 cryst.   s( 9) = (    -1          0          0      )    f =(  0.2500000 )
                  (     0          0         -1      )       (  0.2500000 )
                  (     0         -1          0      )       (  0.2500000 )

 cart.    s( 9) = (  0.0000000  0.0000000  1.0000000 )    f =( -0.2500000 )
                  (  0.0000000 -1.0000000  0.0000000 )       (  0.2500000 )
                  (  1.0000000  0.0000000  0.0000000 )       (  0.2500000 )


      isym = 10     180 deg rotation - cart. axis [-1,0,1]       

 cryst.   s(10) = (     1          0          0      )    f =(  0.2500000 )
                  (     1         -1          0      )       (  0.2500000 )
                  (     1          0         -1      )       (  0.2500000 )

 cart.    s(10) = (  0.0000000  0.0000000 -1.0000000 )    f =( -0.2500000 )
                  (  0.0000000 -1.0000000  0.0000000 )       (  0.2500000 )
                  ( -1.0000000  0.0000000  0.0000000 )       (  0.2500000 )


      isym = 11      90 deg rotation - cart. axis [0,1,0]        

 cryst.   s(11) = (     0          1         -1      )    f =(  0.2500000 )
                  (    -1          1          0      )       (  0.2500000 )
                  (     0          1          0      )       (  0.2500000 )

 cart.    s(11) = (  0.0000000  0.0000000  1.0000000 )    f =( -0.2500000 )
                  (  0.0000000  1.0000000  0.0000000 )       (  0.2500000 )
                  ( -1.0000000  0.0000000  0.0000000 )       (  0.2500000 )


      isym = 12      90 deg rotation - cart. axis [0,-1,0]       

 cryst.   s(12) = (     0         -1          1      )    f =(  0.2500000 )
                  (     0          0          1      )       (  0.2500000 )
                  (    -1          0          1      )       (  0.2500000 )

 cart.    s(12) = (  0.0000000  0.0000000 -1.0000000 )    f =( -0.2500000 )
                  (  0.0000000  1.0000000  0.0000000 )       (  0.2500000 )
                  (  1.0000000  0.0000000  0.0000000 )       (  0.2500000 )


      isym = 13     180 deg rotation - cart. axis [0,1,1]        

 cryst.   s(13) = (    -1          1          0      )    f =(  0.2500000 )
                  (     0          1          0      )       (  0.2500000 )
                  (     0          1         -1      )       (  0.2500000 )

 cart.    s(13) = ( -1.0000000  0.0000000  0.0000000 )    f =( -0.2500000 )
                  (  0.0000000  0.0000000  1.0000000 )       (  0.2500000 )
                  (  0.0000000  1.0000000  0.0000000 )       (  0.2500000 )


      isym = 14     180 deg rotation - cart. axis [0,1,-1]       

 cryst.   s(14) = (     0          0         -1      )    f =(  0.2500000 )
                  (     0         -1          0      )       (  0.2500000 )
                  (    -1          0          0      )       (  0.2500000 )

 cart.    s(14) = ( -1.0000000  0.0000000  0.0000000 )    f =( -0.2500000 )
                  (  0.0000000  0.0000000 -1.0000000 )       (  0.2500000 )
                  (  0.0000000 -1.0000000  0.0000000 )       (  0.2500000 )


      isym = 15      90 deg rotation - cart. axis [-1,0,0]       

 cryst.   s(15) = (     0          0          1      )    f =(  0.2500000 )
                  (    -1          0          1      )       (  0.2500000 )
                  (     0         -1          1      )       (  0.2500000 )

 cart.    s(15) = (  1.0000000  0.0000000  0.0000000 )    f =( -0.2500000 )
                  (  0.0000000  0.0000000  1.0000000 )       (  0.2500000 )
                  (  0.0000000 -1.0000000  0.0000000 )       (  0.2500000 )


      isym = 16      90 deg rotation - cart. axis [1,0,0]        

 cryst.   s(16) = (     1         -1          0      )    f =(  0.2500000 )
                  (     1          0         -1      )       (  0.2500000 )
                  (     1          0          0      )       (  0.2500000 )

 cart.    s(16) = (  1.0000000  0.0000000  0.0000000 )    f =( -0.2500000 )
                  (  0.0000000  0.0000000 -1.0000000 )       (  0.2500000 )
                  (  0.0000000  1.0000000  0.0000000 )       (  0.2500000 )


      isym = 17     120 deg rotation - cart. axis [-1,-1,-1]     

 cryst.   s(17) = (    -1          0          1      )
                  (    -1          1          0      )
                  (    -1          0          0      )

 cart.    s(17) = (  0.0000000  1.0000000  0.0000000 )
                  (  0.0000000  0.0000000  1.0000000 )
                  (  1.0000000  0.0000000  0.0000000 )


      isym = 18     120 deg rotation - cart. axis [-1,1,1]       

 cryst.   s(18) = (     0          1          0      )
                  (     0          0          1      )
                  (     1          0          0      )

 cart.    s(18) = (  0.0000000 -1.0000000  0.0000000 )
                  (  0.0000000  0.0000000  1.0000000 )
                  ( -1.0000000  0.0000000  0.0000000 )


      isym = 19     120 deg rotation - cart. axis [1,1,-1]       

 cryst.   s(19) = (     1          0         -1      )
                  (     0          0         -1      )
                  (     0          1         -1      )

 cart.    s(19) = (  0.0000000  1.0000000  0.0000000 )
                  (  0.0000000  0.0000000 -1.0000000 )
                  ( -1.0000000  0.0000000  0.0000000 )


      isym = 20     120 deg rotation - cart. axis [1,-1,1]       

 cryst.   s(20) = (     0         -1          0      )
                  (     1         -1          0      )
                  (     0         -1          1      )

 cart.    s(20) = (  0.0000000 -1.0000000  0.0000000 )
                  (  0.0000000  0.0000000 -1.0000000 )
                  (  1.0000000  0.0000000  0.0000000 )


      isym = 21     120 deg rotation - cart. axis [1,1,1]        

 cryst.   s(21) = (     0          0         -1      )
                  (     0          1         -1      )
                  (     1          0         -1      )

 cart.    s(21) = (  0.0000000  0.0000000  1.0000000 )
                  (  1.0000000  0.0000000  0.0000000 )
                  (  0.0000000  1.0000000  0.0000000 )


      isym = 22     120 deg rotation - cart. axis [-1,1,-1]      

 cryst.   s(22) = (    -1          1          0      )
                  (    -1          0          0      )
                  (    -1          0          1      )

 cart.    s(22) = (  0.0000000  0.0000000  1.0000000 )
                  ( -1.0000000  0.0000000  0.0000000 )
                  (  0.0000000 -1.0000000  0.0000000 )


      isym = 23     120 deg rotation - cart. axis [1,-1,-1]      

 cryst.   s(23) = (     0          0          1      )
                  (     1          0          0      )
                  (     0          1          0      )

 cart.    s(23) = (  0.0000000  0.0000000 -1.0000000 )
                  ( -1.0000000  0.0000000  0.0000000 )
                  (  0.0000000  1.0000000  0.0000000 )


      isym = 24     120 deg rotation - cart. axis [-1,-1,1]      

 cryst.   s(24) = (     1         -1          0      )
                  (     0         -1          1      )
                  (     0         -1          0      )

 cart.    s(24) = (  0.0000000  0.0000000 -1.0000000 )
                  (  1.0000000  0.0000000  0.0000000 )
                  (  0.0000000 -1.0000000  0.0000000 )


      isym = 25     inversion                                    

 cryst.   s(25) = (    -1          0          0      )    f =(  0.2500000 )
                  (     0         -1          0      )       (  0.2500000 )
                  (     0          0         -1      )       (  0.2500000 )

 cart.    s(25) = ( -1.0000000  0.0000000  0.0000000 )    f =( -0.2500000 )
                  (  0.0000000 -1.0000000  0.0000000 )       (  0.2500000 )
                  (  0.0000000  0.0000000 -1.0000000 )       (  0.2500000 )


      isym = 26     inv. 180 deg rotation - cart. axis [0,0,1]   

 cryst.   s(26) = (     0         -1          1      )    f =(  0.2500000 )
                  (    -1          0          1      )       (  0.2500000 )
                  (     0          0          1      )       (  0.2500000 )

 cart.    s(26) = (  1.0000000  0.0000000  0.0000000 )    f =( -0.2500000 )
                  (  0.0000000  1.0000000  0.0000000 )       (  0.2500000 )
                  (  0.0000000  0.0000000 -1.0000000 )       (  0.2500000 )


      isym = 27     inv. 180 deg rotation - cart. axis [0,1,0]   

 cryst.   s(27) = (     1          0          0      )    f =(  0.2500000 )
                  (     1          0         -1      )       (  0.2500000 )
                  (     1         -1          0      )       (  0.2500000 )

 cart.    s(27) = (  1.0000000  0.0000000  0.0000000 )    f =( -0.2500000 )
                  (  0.0000000 -1.0000000  0.0000000 )       (  0.2500000 )
                  (  0.0000000  0.0000000  1.0000000 )       (  0.2500000 )


      isym = 28     inv. 180 deg rotation - cart. axis [1,0,0]   

 cryst.   s(28) = (     0          1         -1      )    f =(  0.2500000 )
                  (     0          1          0      )       (  0.2500000 )
                  (    -1          1          0      )       (  0.2500000 )

 cart.    s(28) = ( -1.0000000  0.0000000  0.0000000 )    f =( -0.2500000 )
                  (  0.0000000  1.0000000  0.0000000 )       (  0.2500000 )
                  (  0.0000000  0.0000000  1.0000000 )       (  0.2500000 )


      isym = 29     inv. 180 deg rotation - cart. axis [1,1,0]   

 cryst.   s(29) = (     0          1          0      )
                  (     1          0          0      )
                  (     0          0          1      )

 cart.    s(29) = (  0.0000000 -1.0000000  0.0000000 )
                  ( -1.0000000  0.0000000  0.0000000 )
                  (  0.0000000  0.0000000  1.0000000 )


      isym = 30     inv. 180 deg rotation - cart. axis [1,-1,0]  

 cryst.   s(30) = (     1          0         -1      )
                  (     0          1         -1      )
                  (     0          0         -1      )

 cart.    s(30) = (  0.0000000  1.0000000  0.0000000 )
                  (  1.0000000  0.0000000  0.0000000 )
                  (  0.0000000  0.0000000  1.0000000 )


      isym = 31     inv.  90 deg rotation - cart. axis [0,0,-1]  

 cryst.   s(31) = (     0         -1          0      )
                  (     0         -1          1      )
                  (     1         -1          0      )

 cart.    s(31) = (  0.0000000 -1.0000000  0.0000000 )
                  (  1.0000000  0.0000000  0.0000000 )
                  (  0.0000000  0.0000000 -1.0000000 )


      isym = 32     inv.  90 deg rotation - cart. axis [0,0,1]   

 cryst.   s(32) = (    -1          0          1      )
                  (    -1          0          0      )
                  (    -1          1          0      )

 cart.    s(32) = (  0.0000000  1.0000000  0.0000000 )
                  ( -1.0000000  0.0000000  0.0000000 )
                  (  0.0000000  0.0000000 -1.0000000 )


      isym = 33     inv. 180 deg rotation - cart. axis [1,0,1]   

 cryst.   s(33) = (     1          0          0      )
                  (     0          0          1      )
                  (     0          1          0      )

 cart.    s(33) = (  0.0000000  0.0000000 -1.0000000 )
                  (  0.0000000  1.0000000  0.0000000 )
                  ( -1.0000000  0.0000000  0.0000000 )


      isym = 34     inv. 180 deg rotation - cart. axis [-1,0,1]  

 cryst.   s(34) = (    -1          0          0      )
                  (    -1          1          0      )
                  (    -1          0          1      )

 cart.    s(34) = (  0.0000000  0.0000000  1.0000000 )
                  (  0.0000000  1.0000000  0.0000000 )
                  (  1.0000000  0.0000000  0.0000000 )


      isym = 35     inv.  90 deg rotation - cart. axis [0,1,0]   

 cryst.   s(35) = (     0         -1          1      )
                  (     1         -1          0      )
                  (     0         -1          0      )

 cart.    s(35) = (  0.0000000  0.0000000 -1.0000000 )
                  (  0.0000000 -1.0000000  0.0000000 )
                  (  1.0000000  0.0000000  0.0000000 )


      isym = 36     inv.  90 deg rotation - cart. axis [0,-1,0]  

 cryst.   s(36) = (     0          1         -1      )
                  (     0          0         -1      )
                  (     1          0         -1      )

 cart.    s(36) = (  0.0000000  0.0000000  1.0000000 )
                  (  0.0000000 -1.0000000  0.0000000 )
                  ( -1.0000000  0.0000000  0.0000000 )


      isym = 37     inv. 180 deg rotation - cart. axis [0,1,1]   

 cryst.   s(37) = (     1         -1          0      )
                  (     0         -1          0      )
                  (     0         -1          1      )

 cart.    s(37) = (  1.0000000  0.0000000  0.0000000 )
                  (  0.0000000  0.0000000 -1.0000000 )
                  (  0.0000000 -1.0000000  0.0000000 )


      isym = 38     inv. 180 deg rotation - cart. axis [0,1,-1]  

 cryst.   s(38) = (     0          0          1      )
                  (     0          1          0      )
                  (     1          0          0      )

 cart.    s(38) = (  1.0000000  0.0000000  0.0000000 )
                  (  0.0000000  0.0000000  1.0000000 )
                  (  0.0000000  1.0000000  0.0000000 )


      isym = 39     inv.  90 deg rotation - cart. axis [-1,0,0]  

 cryst.   s(39) = (     0          0         -1      )
                  (     1          0         -1      )
                  (     0          1         -1      )

 cart.    s(39) = ( -1.0000000  0.0000000  0.0000000 )
                  (  0.0000000  0.0000000 -1.0000000 )
                  (  0.0000000  1.0000000  0.0000000 )


      isym = 40     inv.  90 deg rotation - cart. axis [1,0,0]   

 cryst.   s(40) = (    -1          1          0      )
                  (    -1          0          1      )
                  (    -1          0          0      )

 cart.    s(40) = ( -1.0000000  0.0000000  0.0000000 )
                  (  0.0000000  0.0000000  1.0000000 )
                  (  0.0000000 -1.0000000  0.0000000 )


      isym = 41     inv. 120 deg rotation - cart. axis [-1,-1,-1]

 cryst.   s(41) = (     1          0         -1      )    f =(  0.2500000 )
                  (     1         -1          0      )       (  0.2500000 )
                  (     1          0          0      )       (  0.2500000 )

 cart.    s(41) = (  0.0000000 -1.0000000  0.0000000 )    f =( -0.2500000 )
                  (  0.0000000  0.0000000 -1.0000000 )       (  0.2500000 )
                  ( -1.0000000  0.0000000  0.0000000 )       (  0.2500000 )


      isym = 42     inv. 120 deg rotation - cart. axis [-1,1,1]  

 cryst.   s(42) = (     0         -1          0      )    f =(  0.2500000 )
                  (     0          0         -1      )       (  0.2500000 )
                  (    -1          0          0      )       (  0.2500000 )

 cart.    s(42) = (  0.0000000  1.0000000  0.0000000 )    f =( -0.2500000 )
                  (  0.0000000  0.0000000 -1.0000000 )       (  0.2500000 )
                  (  1.0000000  0.0000000  0.0000000 )       (  0.2500000 )


      isym = 43     inv. 120 deg rotation - cart. axis [1,1,-1]  

 cryst.   s(43) = (    -1          0          1      )    f =(  0.2500000 )
                  (     0          0          1      )       (  0.2500000 )
                  (     0         -1          1      )       (  0.2500000 )

 cart.    s(43) = (  0.0000000 -1.0000000  0.0000000 )    f =( -0.2500000 )
                  (  0.0000000  0.0000000  1.0000000 )       (  0.2500000 )
                  (  1.0000000  0.0000000  0.0000000 )       (  0.2500000 )


      isym = 44     inv. 120 deg rotation - cart. axis [1,-1,1]  

 cryst.   s(44) = (     0          1          0      )    f =(  0.2500000 )
                  (    -1          1          0      )       (  0.2500000 )
                  (     0          1         -1      )       (  0.2500000 )

 cart.    s(44) = (  0.0000000  1.0000000  0.0000000 )    f =( -0.2500000 )
                  (  0.0000000  0.0000000  1.0000000 )       (  0.2500000 )
                  ( -1.0000000  0.0000000  0.0000000 )       (  0.2500000 )


      isym = 45     inv. 120 deg rotation - cart. axis [1,1,1]   

 cryst.   s(45) = (     0          0          1      )    f =(  0.2500000 )
                  (     0         -1          1      )       (  0.2500000 )
                  (    -1          0          1      )       (  0.2500000 )

 cart.    s(45) = (  0.0000000  0.0000000 -1.0000000 )    f =( -0.2500000 )
                  ( -1.0000000  0.0000000  0.0000000 )       (  0.2500000 )
                  (  0.0000000 -1.0000000  0.0000000 )       (  0.2500000 )


      isym = 46     inv. 120 deg rotation - cart. axis [-1,1,-1] 

 cryst.   s(46) = (     1         -1          0      )    f =(  0.2500000 )
                  (     1          0          0      )       (  0.2500000 )
                  (     1          0         -1      )       (  0.2500000 )

 cart.    s(46) = (  0.0000000  0.0000000 -1.0000000 )    f =( -0.2500000 )
                  (  1.0000000  0.0000000  0.0000000 )       (  0.2500000 )
                  (  0.0000000  1.0000000  0.0000000 )       (  0.2500000 )


      isym = 47     inv. 120 deg rotation - cart. axis [1,-1,-1] 

 cryst.   s(47) = (     0          0         -1      )    f =(  0.2500000 )
                  (    -1          0          0      )       (  0.2500000 )
                  (     0         -1          0      )       (  0.2500000 )

 cart.    s(47) = (  0.0000000  0.0000000  1.0000000 )    f =( -0.2500000 )
                  (  1.0000000  0.0000000  0.0000000 )       (  0.2500000 )
                  (  0.0000000 -1.0000000  0.0000000 )       (  0.2500000 )


      isym = 48     inv. 120 deg rotation - cart. axis [-1,-1,1] 

 cryst.   s(48) = (    -1          1          0      )    f =(  0.2500000 )
                  (     0          1         -1      )       (  0.2500000 )
                  (     0          1          0      )       (  0.2500000 )

 cart.    s(48) = (  0.0000000  0.0000000  1.0000000 )    f =( -0.2500000 )
                  ( -1.0000000  0.0000000  0.0000000 )       (  0.2500000 )
                  (  0.0000000  1.0000000  0.0000000 )       (  0.2500000 )


     point group O_h (m-3m) 
     there are 10 classes
     the character table:

       E     8C3   3C2   6C4   6C2'  i     8S6   3s_h  6S4   6s_d 
A_1g   1.00  1.00  1.00  1.00  1.00  1.00  1.00  1.00  1.00  1.00
A_2g   1.00  1.00  1.00 -1.00 -1.00  1.00  1.00  1.00 -1.00 -1.00
E_g    2.00 -1.00  2.00  0.00  0.00  2.00 -1.00  2.00  0.00  0.00
T_1g   3.00  0.00 -1.00  1.00 -1.00  3.00  0.00 -1.00  1.00 -1.00
T_2g   3.00  0.00 -1.00 -1.00  1.00  3.00  0.00 -1.00 -1.00  1.00
A_1u   1.00  1.00  1.00  1.00  1.00 -1.00 -1.00 -1.00 -1.00 -1.00
A_2u   1.00  1.00  1.00 -1.00 -1.00 -1.00 -1.00 -1.00  1.00  1.00
E_u    2.00 -1.00  2.00  0.00  0.00 -2.00  1.00 -2.00  0.00  0.00
T_1u   3.00  0.00 -1.00  1.00 -1.00 -3.00  0.00  1.00 -1.00  1.00
T_2u   3.00  0.00 -1.00 -1.00  1.00 -3.00  0.00  1.00  1.00 -1.00

     the symmetry operations in each class and the name of the first element:

     E        1
          identity                                               
     8C3     17   19   20   18   24   21   22   23
          120 deg rotation - cart. axis [-1,-1,-1]               
     3C2      2    4    3
          180 deg rotation - cart. axis [0,0,1]                  
     6C4      7    8   15   16   12   11
           90 deg rotation - cart. axis [0,0,-1]                 
     6C2'     5    6   14   13   10    9
          180 deg rotation - cart. axis [1,1,0]                  
     i       25
          inversion                                              
     8S6     41   43   44   42   48   45   46   47
          inv. 120 deg rotation - cart. axis [-1,-1,-1]          
     3s_h    26   28   27
          inv. 180 deg rotation - cart. axis [0,0,1]             
     6S4     31   32   39   40   36   35
          inv.  90 deg rotation - cart. axis [0,0,-1]            
     6s_d    29   30   38   37   34   33
          inv. 180 deg rotation - cart. axis [1,1,0]             

   Cartesian axes

     site n.     atom                  positions (alat units)
         1           Si  tau(   1) = (   0.0000000   0.0000000   0.0000000  )
         2           Si  tau(   2) = (   0.2500000   0.2500000   0.2500000  )

   Crystallographic axes

     site n.     atom                  positions (cryst. coord.)
         1           Si  tau(   1) = (  0.0000000  0.0000000  0.0000000  )
         2           Si  tau(   2) = ( -0.2500000  0.7500000 -0.2500000  )

     number of k points=   201
                       cart. coord. in units 2pi/alat
        k(    1) = (   0.0000000   0.0000000   1.0000000), wk =   0.0099502
        k(    2) = (   0.0000000   0.0000000   0.9750000), wk =   0.0099502
        k(    3) = (   0.0000000   0.0000000   0.9500000), wk =   0.0099502
        k(    4) = (   0.0000000   0.0000000   0.9250000), wk =   0.0099502
        k(    5) = (   0.0000000   0.0000000   0.9000000), wk =   0.0099502
        k(    6) = (   0.0000000   0.0000000   0.8750000), wk =   0.0099502
        k(    7) = (   0.0000000   0.0000000   0.8500000), wk =   0.0099502
        k(    8) = (   0.0000000   0.0000000   0.8250000), wk =   0.0099502
        k(    9) = (   0.0000000   0.0000000   0.8000000), wk =   0.0099502
        k(   10) = (   0.0000000   0.0000000   0.7750000), wk =   0.0099502
        k(   11) = (   0.0000000   0.0000000   0.7500000), wk =   0.0099502
        k(   12) = (   0.0000000   0.0000000   0.7250000), wk =   0.0099502
        k(   13) = (   0.0000000   0.0000000   0.7000000), wk =   0.0099502
        k(   14) = (   0.0000000   0.0000000   0.6750000), wk =   0.0099502
        k(   15) = (   0.0000000   0.0000000   0.6500000), wk =   0.0099502
        k(   16) = (   0.0000000   0.0000000   0.6250000), wk =   0.0099502
        k(   17) = (   0.0000000   0.0000000   0.6000000), wk =   0.0099502
        k(   18) = (   0.0000000   0.0000000   0.5750000), wk =   0.0099502
        k(   19) = (   0.0000000   0.0000000   0.5500000), wk =   0.0099502
        k(   20) = (   0.0000000   0.0000000   0.5250000), wk =   0.0099502
        k(   21) = (   0.0000000   0.0000000   0.5000000), wk =   0.0099502
        k(   22) = (   0.0000000   0.0000000   0.4750000), wk =   0.0099502
        k(   23) = (   0.0000000   0.0000000   0.4500000), wk =   0.0099502
        k(   24) = (   0.0000000   0.0000000   0.4250000), wk =   0.0099502
        k(   25) = (   0.0000000   0.0000000   0.4000000), wk =   0.0099502
        k(   26) = (   0.0000000   0.0000000   0.3750000), wk =   0.0099502
        k(   27) = (   0.0000000   0.0000000   0.3500000), wk =   0.0099502
        k(   28) = (   0.0000000   0.0000000   0.3250000), wk =   0.0099502
        k(   29) = (   0.0000000   0.0000000   0.3000000), wk =   0.0099502
        k(   30) = (   0.0000000   0.0000000   0.2750000), wk =   0.0099502
        k(   31) = (   0.0000000   0.0000000   0.2500000), wk =   0.0099502
        k(   32) = (   0.0000000   0.0000000   0.2250000), wk =   0.0099502
        k(   33) = (   0.0000000   0.0000000   0.2000000), wk =   0.0099502
        k(   34) = (   0.0000000   0.0000000   0.1750000), wk =   0.0099502
        k(   35) = (   0.0000000   0.0000000   0.1500000), wk =   0.0099502
        k(   36) = (   0.0000000   0.0000000   0.1250000), wk =   0.0099502
        k(   37) = (   0.0000000   0.0000000   0.1000000), wk =   0.0099502
        k(   38) = (   0.0000000   0.0000000   0.0750000), wk =   0.0099502
        k(   39) = (   0.0000000   0.0000000   0.0500000), wk =   0.0099502
        k(   40) = (   0.0000000   0.0000000   0.0250000), wk =   0.0099502
        k(   41) = (   0.0000000   0.0000000   0.0000000), wk =   0.0099502
        k(   42) = (  -0.0125000   0.0125000   0.0125000), wk =   0.0099502
        k(   43) = (  -0.0250000   0.0250000   0.0250000), wk =   0.0099502
        k(   44) = (  -0.0375000   0.0375000   0.0375000), wk =   0.0099502
        k(   45) = (  -0.0500000   0.0500000   0.0500000), wk =   0.0099502
        k(   46) = (  -0.0625000   0.0625000   0.0625000), wk =   0.0099502
        k(   47) = (  -0.0750000   0.0750000   0.0750000), wk =   0.0099502
        k(   48) = (  -0.0875000   0.0875000   0.0875000), wk =   0.0099502
        k(   49) = (  -0.1000000   0.1000000   0.1000000), wk =   0.0099502
        k(   50) = (  -0.1125000   0.1125000   0.1125000), wk =   0.0099502
        k(   51) = (  -0.1250000   0.1250000   0.1250000), wk =   0.0099502
        k(   52) = (  -0.1375000   0.1375000   0.1375000), wk =   0.0099502
        k(   53) = (  -0.1500000   0.1500000   0.1500000), wk =   0.0099502
        k(   54) = (  -0.1625000   0.1625000   0.1625000), wk =   0.0099502
        k(   55) = (  -0.1750000   0.1750000   0.1750000), wk =   0.0099502
        k(   56) = (  -0.1875000   0.1875000   0.1875000), wk =   0.0099502
        k(   57) = (  -0.2000000   0.2000000   0.2000000), wk =   0.0099502
        k(   58) = (  -0.2125000   0.2125000   0.2125000), wk =   0.0099502
        k(   59) = (  -0.2250000   0.2250000   0.2250000), wk =   0.0099502
        k(   60) = (  -0.2375000   0.2375000   0.2375000), wk =   0.0099502
        k(   61) = (  -0.2500000   0.2500000   0.2500000), wk =   0.0099502
        k(   62) = (  -0.2625000   0.2625000   0.2625000), wk =   0.0099502
        k(   63) = (  -0.2750000   0.2750000   0.2750000), wk =   0.0099502
        k(   64) = (  -0.2875000   0.2875000   0.2875000), wk =   0.0099502
        k(   65) = (  -0.3000000   0.3000000   0.3000000), wk =   0.0099502
        k(   66) = (  -0.3125000   0.3125000   0.3125000), wk =   0.0099502
        k(   67) = (  -0.3250000   0.3250000   0.3250000), wk =   0.0099502
        k(   68) = (  -0.3375000   0.3375000   0.3375000), wk =   0.0099502
        k(   69) = (  -0.3500000   0.3500000   0.3500000), wk =   0.0099502
        k(   70) = (  -0.3625000   0.3625000   0.3625000), wk =   0.0099502
        k(   71) = (  -0.3750000   0.3750000   0.3750000), wk =   0.0099502
        k(   72) = (  -0.3875000   0.3875000   0.3875000), wk =   0.0099502
        k(   73) = (  -0.4000000   0.4000000   0.4000000), wk =   0.0099502
        k(   74) = (  -0.4125000   0.4125000   0.4125000), wk =   0.0099502
        k(   75) = (  -0.4250000   0.4250000   0.4250000), wk =   0.0099502
        k(   76) = (  -0.4375000   0.4375000   0.4375000), wk =   0.0099502
        k(   77) = (  -0.4500000   0.4500000   0.4500000), wk =   0.0099502
        k(   78) = (  -0.4625000   0.4625000   0.4625000), wk =   0.0099502
        k(   79) = (  -0.4750000   0.4750000   0.4750000), wk =   0.0099502
        k(   80) = (  -0.4875000   0.4875000   0.4875000), wk =   0.0099502
        k(   81) = (  -0.5000000   0.5000000   0.5000000), wk =   0.0099502
        k(   82) = (  -0.5000000   0.4875000   0.5125000), wk =   0.0099502
        k(   83) = (  -0.5000000   0.4750000   0.5250000), wk =   0.0099502
        k(   84) = (  -0.5000000   0.4625000   0.5375000), wk =   0.0099502
        k(   85) = (  -0.5000000   0.4500000   0.5500000), wk =   0.0099502
        k(   86) = (  -0.5000000   0.4375000   0.5625000), wk =   0.0099502
        k(   87) = (  -0.5000000   0.4250000   0.5750000), wk =   0.0099502
        k(   88) = (  -0.5000000   0.4125000   0.5875000), wk =   0.0099502
        k(   89) = (  -0.5000000   0.4000000   0.6000000), wk =   0.0099502
        k(   90) = (  -0.5000000   0.3875000   0.6125000), wk =   0.0099502
        k(   91) = (  -0.5000000   0.3750000   0.6250000), wk =   0.0099502
        k(   92) = (  -0.5000000   0.3625000   0.6375000), wk =   0.0099502
        k(   93) = (  -0.5000000   0.3500000   0.6500000), wk =   0.0099502
        k(   94) = (  -0.5000000   0.3375000   0.6625000), wk =   0.0099502
        k(   95) = (  -0.5000000   0.3250000   0.6750000), wk =   0.0099502
        k(   96) = (  -0.5000000   0.3125000   0.6875000), wk =   0.0099502
        k(   97) = (  -0.5000000   0.3000000   0.7000000), wk =   0.0099502
        k(   98) = (  -0.5000000   0.2875000   0.7125000), wk =   0.0099502
        k(   99) = (  -0.5000000   0.2750000   0.7250000), wk =   0.0099502
        k(  100) = (  -0.5000000   0.2625000   0.7375000), wk =   0.0099502
        k(  101) = (  -0.5000000   0.2500000   0.7500000), wk =   0.0099502
        k(  102) = (  -0.5000000   0.2375000   0.7625000), wk =   0.0099502
        k(  103) = (  -0.5000000   0.2250000   0.7750000), wk =   0.0099502
        k(  104) = (  -0.5000000   0.2125000   0.7875000), wk =   0.0099502
        k(  105) = (  -0.5000000   0.2000000   0.8000000), wk =   0.0099502
        k(  106) = (  -0.5000000   0.1875000   0.8125000), wk =   0.0099502
        k(  107) = (  -0.5000000   0.1750000   0.8250000), wk =   0.0099502
        k(  108) = (  -0.5000000   0.1625000   0.8375000), wk =   0.0099502
        k(  109) = (  -0.5000000   0.1500000   0.8500000), wk =   0.0099502
        k(  110) = (  -0.5000000   0.1375000   0.8625000), wk =   0.0099502
        k(  111) = (  -0.5000000   0.1250000   0.8750000), wk =   0.0099502
        k(  112) = (  -0.5000000   0.1125000   0.8875000), wk =   0.0099502
        k(  113) = (  -0.5000000   0.1000000   0.9000000), wk =   0.0099502
        k(  114) = (  -0.5000000   0.0875000   0.9125000), wk =   0.0099502
        k(  115) = (  -0.5000000   0.0750000   0.9250000), wk =   0.0099502
        k(  116) = (  -0.5000000   0.0625000   0.9375000), wk =   0.0099502
        k(  117) = (  -0.5000000   0.0500000   0.9500000), wk =   0.0099502
        k(  118) = (  -0.5000000   0.0375000   0.9625000), wk =   0.0099502
        k(  119) = (  -0.5000000   0.0250000   0.9750000), wk =   0.0099502
        k(  120) = (  -0.5000000   0.0125000   0.9875000), wk =   0.0099502
        k(  121) = (  -0.5000000   0.0000000   1.0000000), wk =   0.0099502
        k(  122) = (  -0.5062500   0.0000000   0.9937500), wk =   0.0099502
        k(  123) = (  -0.5125000   0.0000000   0.9875000), wk =   0.0099502
        k(  124) = (  -0.5187500   0.0000000   0.9812500), wk =   0.0099502
        k(  125) = (  -0.5250000   0.0000000   0.9750000), wk =   0.0099502
        k(  126) = (  -0.5312500   0.0000000   0.9687500), wk =   0.0099502
        k(  127) = (  -0.5375000   0.0000000   0.9625000), wk =   0.0099502
        k(  128) = (  -0.5437500   0.0000000   0.9562500), wk =   0.0099502
        k(  129) = (  -0.5500000   0.0000000   0.9500000), wk =   0.0099502
        k(  130) = (  -0.5562500   0.0000000   0.9437500), wk =   0.0099502
        k(  131) = (  -0.5625000   0.0000000   0.9375000), wk =   0.0099502
        k(  132) = (  -0.5687500   0.0000000   0.9312500), wk =   0.0099502
        k(  133) = (  -0.5750000   0.0000000   0.9250000), wk =   0.0099502
        k(  134) = (  -0.5812500   0.0000000   0.9187500), wk =   0.0099502
        k(  135) = (  -0.5875000   0.0000000   0.9125000), wk =   0.0099502
        k(  136) = (  -0.5937500   0.0000000   0.9062500), wk =   0.0099502
        k(  137) = (  -0.6000000   0.0000000   0.9000000), wk =   0.0099502
        k(  138) = (  -0.6062500   0.0000000   0.8937500), wk =   0.0099502
        k(  139) = (  -0.6125000   0.0000000   0.8875000), wk =   0.0099502
        k(  140) = (  -0.6187500   0.0000000   0.8812500), wk =   0.0099502
        k(  141) = (  -0.6250000   0.0000000   0.8750000), wk =   0.0099502
        k(  142) = (  -0.6312500   0.0000000   0.8687500), wk =   0.0099502
        k(  143) = (  -0.6375000   0.0000000   0.8625000), wk =   0.0099502
        k(  144) = (  -0.6437500   0.0000000   0.8562500), wk =   0.0099502
        k(  145) = (  -0.6500000   0.0000000   0.8500000), wk =   0.0099502
        k(  146) = (  -0.6562500   0.0000000   0.8437500), wk =   0.0099502
        k(  147) = (  -0.6625000   0.0000000   0.8375000), wk =   0.0099502
        k(  148) = (  -0.6687500   0.0000000   0.8312500), wk =   0.0099502
        k(  149) = (  -0.6750000   0.0000000   0.8250000), wk =   0.0099502
        k(  150) = (  -0.6812500   0.0000000   0.8187500), wk =   0.0099502
        k(  151) = (  -0.6875000   0.0000000   0.8125000), wk =   0.0099502
        k(  152) = (  -0.6937500   0.0000000   0.8062500), wk =   0.0099502
        k(  153) = (  -0.7000000   0.0000000   0.8000000), wk =   0.0099502
        k(  154) = (  -0.7062500   0.0000000   0.7937500), wk =   0.0099502
        k(  155) = (  -0.7125000   0.0000000   0.7875000), wk =   0.0099502
        k(  156) = (  -0.7187500   0.0000000   0.7812500), wk =   0.0099502
        k(  157) = (  -0.7250000   0.0000000   0.7750000), wk =   0.0099502
        k(  158) = (  -0.7312500   0.0000000   0.7687500), wk =   0.0099502
        k(  159) = (  -0.7375000   0.0000000   0.7625000), wk =   0.0099502
        k(  160) = (  -0.7437500   0.0000000   0.7562500), wk =   0.0099502
        k(  161) = (  -0.7500000   0.0000000   0.7500000), wk =   0.0099502
        k(  162) = (  -0.7312500   0.0000000   0.7312500), wk =   0.0099502
        k(  163) = (  -0.7125000   0.0000000   0.7125000), wk =   0.0099502
        k(  164) = (  -0.6937500   0.0000000   0.6937500), wk =   0.0099502
        k(  165) = (  -0.6750000   0.0000000   0.6750000), wk =   0.0099502
        k(  166) = (  -0.6562500   0.0000000   0.6562500), wk =   0.0099502
        k(  167) = (  -0.6375000   0.0000000   0.6375000), wk =   0.0099502
        k(  168) = (  -0.6187500   0.0000000   0.6187500), wk =   0.0099502
        k(  169) = (  -0.6000000   0.0000000   0.6000000), wk =   0.0099502
        k(  170) = (  -0.5812500   0.0000000   0.5812500), wk =   0.0099502
        k(  171) = (  -0.5625000   0.0000000   0.5625000), wk =   0.0099502
        k(  172) = (  -0.5437500   0.0000000   0.5437500), wk =   0.0099502
        k(  173) = (  -0.5250000   0.0000000   0.5250000), wk =   0.0099502
        k(  174) = (  -0.5062500   0.0000000   0.5062500), wk =   0.0099502
        k(  175) = (  -0.4875000   0.0000000   0.4875000), wk =   0.0099502
        k(  176) = (  -0.4687500   0.0000000   0.4687500), wk =   0.0099502
        k(  177) = (  -0.4500000   0.0000000   0.4500000), wk =   0.0099502
        k(  178) = (  -0.4312500   0.0000000   0.4312500), wk =   0.0099502
        k(  179) = (  -0.4125000   0.0000000   0.4125000), wk =   0.0099502
        k(  180) = (  -0.3937500   0.0000000   0.3937500), wk =   0.0099502
        k(  181) = (  -0.3750000   0.0000000   0.3750000), wk =   0.0099502
        k(  182) = (  -0.3562500   0.0000000   0.3562500), wk =   0.0099502
        k(  183) = (  -0.3375000   0.0000000   0.3375000), wk =   0.0099502
        k(  184) = (  -0.3187500   0.0000000   0.3187500), wk =   0.0099502
        k(  185) = (  -0.3000000   0.0000000   0.3000000), wk =   0.0099502
        k(  186) = (  -0.2812500   0.0000000   0.2812500), wk =   0.0099502
        k(  187) = (  -0.2625000   0.0000000   0.2625000), wk =   0.0099502
        k(  188) = (  -0.2437500   0.0000000   0.2437500), wk =   0.0099502
        k(  189) = (  -0.2250000   0.0000000   0.2250000), wk =   0.0099502
        k(  190) = (  -0.2062500   0.0000000   0.2062500), wk =   0.0099502
        k(  191) = (  -0.1875000   0.0000000   0.1875000), wk =   0.0099502
        k(  192) = (  -0.1687500   0.0000000   0.1687500), wk =   0.0099502
        k(  193) = (  -0.1500000   0.0000000   0.1500000), wk =   0.0099502
        k(  194) = (  -0.1312500   0.0000000   0.1312500), wk =   0.0099502
        k(  195) = (  -0.1125000   0.0000000   0.1125000), wk =   0.0099502
        k(  196) = (  -0.0937500   0.0000000   0.0937500), wk =   0.0099502
        k(  197) = (  -0.0750000   0.0000000   0.0750000), wk =   0.0099502
        k(  198) = (  -0.0562500   0.0000000   0.0562500), wk =   0.0099502
        k(  199) = (  -0.0375000   0.0000000   0.0375000), wk =   0.0099502
        k(  200) = (  -0.0187500   0.0000000   0.0187500), wk =   0.0099502
        k(  201) = (   0.0000000   0.0000000   0.0000000), wk =   0.0099502

                       cryst. coord.
        k(    1) = (   0.5000000   0.5000000   0.0000000), wk =   0.0099502
        k(    2) = (   0.4875000   0.4875000   0.0000000), wk =   0.0099502
        k(    3) = (   0.4750000   0.4750000   0.0000000), wk =   0.0099502
        k(    4) = (   0.4625000   0.4625000   0.0000000), wk =   0.0099502
        k(    5) = (   0.4500000   0.4500000   0.0000000), wk =   0.0099502
        k(    6) = (   0.4375000   0.4375000   0.0000000), wk =   0.0099502
        k(    7) = (   0.4250000   0.4250000   0.0000000), wk =   0.0099502
        k(    8) = (   0.4125000   0.4125000   0.0000000), wk =   0.0099502
        k(    9) = (   0.4000000   0.4000000   0.0000000), wk =   0.0099502
        k(   10) = (   0.3875000   0.3875000   0.0000000), wk =   0.0099502
        k(   11) = (   0.3750000   0.3750000   0.0000000), wk =   0.0099502
        k(   12) = (   0.3625000   0.3625000   0.0000000), wk =   0.0099502
        k(   13) = (   0.3500000   0.3500000   0.0000000), wk =   0.0099502
        k(   14) = (   0.3375000   0.3375000   0.0000000), wk =   0.0099502
        k(   15) = (   0.3250000   0.3250000   0.0000000), wk =   0.0099502
        k(   16) = (   0.3125000   0.3125000   0.0000000), wk =   0.0099502
        k(   17) = (   0.3000000   0.3000000   0.0000000), wk =   0.0099502
        k(   18) = (   0.2875000   0.2875000   0.0000000), wk =   0.0099502
        k(   19) = (   0.2750000   0.2750000   0.0000000), wk =   0.0099502
        k(   20) = (   0.2625000   0.2625000   0.0000000), wk =   0.0099502
        k(   21) = (   0.2500000   0.2500000   0.0000000), wk =   0.0099502
        k(   22) = (   0.2375000   0.2375000   0.0000000), wk =   0.0099502
        k(   23) = (   0.2250000   0.2250000   0.0000000), wk =   0.0099502
        k(   24) = (   0.2125000   0.2125000   0.0000000), wk =   0.0099502
        k(   25) = (   0.2000000   0.2000000   0.0000000), wk =   0.0099502
        k(   26) = (   0.1875000   0.1875000   0.0000000), wk =   0.0099502
        k(   27) = (   0.1750000   0.1750000   0.0000000), wk =   0.0099502
        k(   28) = (   0.1625000   0.1625000   0.0000000), wk =   0.0099502
        k(   29) = (   0.1500000   0.1500000   0.0000000), wk =   0.0099502
        k(   30) = (   0.1375000   0.1375000   0.0000000), wk =   0.0099502
        k(   31) = (   0.1250000   0.1250000   0.0000000), wk =   0.0099502
        k(   32) = (   0.1125000   0.1125000   0.0000000), wk =   0.0099502
        k(   33) = (   0.1000000   0.1000000   0.0000000), wk =   0.0099502
        k(   34) = (   0.0875000   0.0875000   0.0000000), wk =   0.0099502
        k(   35) = (   0.0750000   0.0750000   0.0000000), wk =   0.0099502
        k(   36) = (   0.0625000   0.0625000   0.0000000), wk =   0.0099502
        k(   37) = (   0.0500000   0.0500000   0.0000000), wk =   0.0099502
        k(   38) = (   0.0375000   0.0375000   0.0000000), wk =   0.0099502
        k(   39) = (   0.0250000   0.0250000   0.0000000), wk =   0.0099502
        k(   40) = (   0.0125000   0.0125000   0.0000000), wk =   0.0099502
        k(   41) = (   0.0000000   0.0000000   0.0000000), wk =   0.0099502
        k(   42) = (   0.0125000   0.0125000   0.0125000), wk =   0.0099502
        k(   43) = (   0.0250000   0.0250000   0.0250000), wk =   0.0099502
        k(   44) = (   0.0375000   0.0375000   0.0375000), wk =   0.0099502
        k(   45) = (   0.0500000   0.0500000   0.0500000), wk =   0.0099502
        k(   46) = (   0.0625000   0.0625000   0.0625000), wk =   0.0099502
        k(   47) = (   0.0750000   0.0750000   0.0750000), wk =   0.0099502
        k(   48) = (   0.0875000   0.0875000   0.0875000), wk =   0.0099502
        k(   49) = (   0.1000000   0.1000000   0.1000000), wk =   0.0099502
        k(   50) = (   0.1125000   0.1125000   0.1125000), wk =   0.0099502
        k(   51) = (   0.1250000   0.1250000   0.1250000), wk =   0.0099502
        k(   52) = (   0.1375000   0.1375000   0.1375000), wk =   0.0099502
        k(   53) = (   0.1500000   0.1500000   0.1500000), wk =   0.0099502
        k(   54) = (   0.1625000   0.1625000   0.1625000), wk =   0.0099502
        k(   55) = (   0.1750000   0.1750000   0.1750000), wk =   0.0099502
        k(   56) = (   0.1875000   0.1875000   0.1875000), wk =   0.0099502
        k(   57) = (   0.2000000   0.2000000   0.2000000), wk =   0.0099502
        k(   58) = (   0.2125000   0.2125000   0.2125000), wk =   0.0099502
        k(   59) = (   0.2250000   0.2250000   0.2250000), wk =   0.0099502
        k(   60) = (   0.2375000   0.2375000   0.2375000), wk =   0.0099502
        k(   61) = (   0.2500000   0.2500000   0.2500000), wk =   0.0099502
        k(   62) = (   0.2625000   0.2625000   0.2625000), wk =   0.0099502
        k(   63) = (   0.2750000   0.2750000   0.2750000), wk =   0.0099502
        k(   64) = (   0.2875000   0.2875000   0.2875000), wk =   0.0099502
        k(   65) = (   0.3000000   0.3000000   0.3000000), wk =   0.0099502
        k(   66) = (   0.3125000   0.3125000   0.3125000), wk =   0.0099502
        k(   67) = (   0.3250000   0.3250000   0.3250000), wk =   0.0099502
        k(   68) = (   0.3375000   0.3375000   0.3375000), wk =   0.0099502
        k(   69) = (   0.3500000   0.3500000   0.3500000), wk =   0.0099502
        k(   70) = (   0.3625000   0.3625000   0.3625000), wk =   0.0099502
        k(   71) = (   0.3750000   0.3750000   0.3750000), wk =   0.0099502
        k(   72) = (   0.3875000   0.3875000   0.3875000), wk =   0.0099502
        k(   73) = (   0.4000000   0.4000000   0.4000000), wk =   0.0099502
        k(   74) = (   0.4125000   0.4125000   0.4125000), wk =   0.0099502
        k(   75) = (   0.4250000   0.4250000   0.4250000), wk =   0.0099502
        k(   76) = (   0.4375000   0.4375000   0.4375000), wk =   0.0099502
        k(   77) = (   0.4500000   0.4500000   0.4500000), wk =   0.0099502
        k(   78) = (   0.4625000   0.4625000   0.4625000), wk =   0.0099502
        k(   79) = (   0.4750000   0.4750000   0.4750000), wk =   0.0099502
        k(   80) = (   0.4875000   0.4875000   0.4875000), wk =   0.0099502
        k(   81) = (   0.5000000   0.5000000   0.5000000), wk =   0.0099502
        k(   82) = (   0.5062500   0.5000000   0.4937500), wk =   0.0099502
        k(   83) = (   0.5125000   0.5000000   0.4875000), wk =   0.0099502
        k(   84) = (   0.5187500   0.5000000   0.4812500), wk =   0.0099502
        k(   85) = (   0.5250000   0.5000000   0.4750000), wk =   0.0099502
        k(   86) = (   0.5312500   0.5000000   0.4687500), wk =   0.0099502
        k(   87) = (   0.5375000   0.5000000   0.4625000), wk =   0.0099502
        k(   88) = (   0.5437500   0.5000000   0.4562500), wk =   0.0099502
        k(   89) = (   0.5500000   0.5000000   0.4500000), wk =   0.0099502
        k(   90) = (   0.5562500   0.5000000   0.4437500), wk =   0.0099502
        k(   91) = (   0.5625000   0.5000000   0.4375000), wk =   0.0099502
        k(   92) = (   0.5687500   0.5000000   0.4312500), wk =   0.0099502
        k(   93) = (   0.5750000   0.5000000   0.4250000), wk =   0.0099502
        k(   94) = (   0.5812500   0.5000000   0.4187500), wk =   0.0099502
        k(   95) = (   0.5875000   0.5000000   0.4125000), wk =   0.0099502
        k(   96) = (   0.5937500   0.5000000   0.4062500), wk =   0.0099502
        k(   97) = (   0.6000000   0.5000000   0.4000000), wk =   0.0099502
        k(   98) = (   0.6062500   0.5000000   0.3937500), wk =   0.0099502
        k(   99) = (   0.6125000   0.5000000   0.3875000), wk =   0.0099502
        k(  100) = (   0.6187500   0.5000000   0.3812500), wk =   0.0099502
        k(  101) = (   0.6250000   0.5000000   0.3750000), wk =   0.0099502
        k(  102) = (   0.6312500   0.5000000   0.3687500), wk =   0.0099502
        k(  103) = (   0.6375000   0.5000000   0.3625000), wk =   0.0099502
        k(  104) = (   0.6437500   0.5000000   0.3562500), wk =   0.0099502
        k(  105) = (   0.6500000   0.5000000   0.3500000), wk =   0.0099502
        k(  106) = (   0.6562500   0.5000000   0.3437500), wk =   0.0099502
        k(  107) = (   0.6625000   0.5000000   0.3375000), wk =   0.0099502
        k(  108) = (   0.6687500   0.5000000   0.3312500), wk =   0.0099502
        k(  109) = (   0.6750000   0.5000000   0.3250000), wk =   0.0099502
        k(  110) = (   0.6812500   0.5000000   0.3187500), wk =   0.0099502
        k(  111) = (   0.6875000   0.5000000   0.3125000), wk =   0.0099502
        k(  112) = (   0.6937500   0.5000000   0.3062500), wk =   0.0099502
        k(  113) = (   0.7000000   0.5000000   0.3000000), wk =   0.0099502
        k(  114) = (   0.7062500   0.5000000   0.2937500), wk =   0.0099502
        k(  115) = (   0.7125000   0.5000000   0.2875000), wk =   0.0099502
        k(  116) = (   0.7187500   0.5000000   0.2812500), wk =   0.0099502
        k(  117) = (   0.7250000   0.5000000   0.2750000), wk =   0.0099502
        k(  118) = (   0.7312500   0.5000000   0.2687500), wk =   0.0099502
        k(  119) = (   0.7375000   0.5000000   0.2625000), wk =   0.0099502
        k(  120) = (   0.7437500   0.5000000   0.2562500), wk =   0.0099502
        k(  121) = (   0.7500000   0.5000000   0.2500000), wk =   0.0099502
        k(  122) = (   0.7500000   0.4968750   0.2531250), wk =   0.0099502
        k(  123) = (   0.7500000   0.4937500   0.2562500), wk =   0.0099502
        k(  124) = (   0.7500000   0.4906250   0.2593750), wk =   0.0099502
        k(  125) = (   0.7500000   0.4875000   0.2625000), wk =   0.0099502
        k(  126) = (   0.7500000   0.4843750   0.2656250), wk =   0.0099502
        k(  127) = (   0.7500000   0.4812500   0.2687500), wk =   0.0099502
        k(  128) = (   0.7500000   0.4781250   0.2718750), wk =   0.0099502
        k(  129) = (   0.7500000   0.4750000   0.2750000), wk =   0.0099502
        k(  130) = (   0.7500000   0.4718750   0.2781250), wk =   0.0099502
        k(  131) = (   0.7500000   0.4687500   0.2812500), wk =   0.0099502
        k(  132) = (   0.7500000   0.4656250   0.2843750), wk =   0.0099502
        k(  133) = (   0.7500000   0.4625000   0.2875000), wk =   0.0099502
        k(  134) = (   0.7500000   0.4593750   0.2906250), wk =   0.0099502
        k(  135) = (   0.7500000   0.4562500   0.2937500), wk =   0.0099502
        k(  136) = (   0.7500000   0.4531250   0.2968750), wk =   0.0099502
        k(  137) = (   0.7500000   0.4500000   0.3000000), wk =   0.0099502
        k(  138) = (   0.7500000   0.4468750   0.3031250), wk =   0.0099502
        k(  139) = (   0.7500000   0.4437500   0.3062500), wk =   0.0099502
        k(  140) = (   0.7500000   0.4406250   0.3093750), wk =   0.0099502
        k(  141) = (   0.7500000   0.4375000   0.3125000), wk =   0.0099502
        k(  142) = (   0.7500000   0.4343750   0.3156250), wk =   0.0099502
        k(  143) = (   0.7500000   0.4312500   0.3187500), wk =   0.0099502
        k(  144) = (   0.7500000   0.4281250   0.3218750), wk =   0.0099502
        k(  145) = (   0.7500000   0.4250000   0.3250000), wk =   0.0099502
        k(  146) = (   0.7500000   0.4218750   0.3281250), wk =   0.0099502
        k(  147) = (   0.7500000   0.4187500   0.3312500), wk =   0.0099502
        k(  148) = (   0.7500000   0.4156250   0.3343750), wk =   0.0099502
        k(  149) = (   0.7500000   0.4125000   0.3375000), wk =   0.0099502
        k(  150) = (   0.7500000   0.4093750   0.3406250), wk =   0.0099502
        k(  151) = (   0.7500000   0.4062500   0.3437500), wk =   0.0099502
        k(  152) = (   0.7500000   0.4031250   0.3468750), wk =   0.0099502
        k(  153) = (   0.7500000   0.4000000   0.3500000), wk =   0.0099502
        k(  154) = (   0.7500000   0.3968750   0.3531250), wk =   0.0099502
        k(  155) = (   0.7500000   0.3937500   0.3562500), wk =   0.0099502
        k(  156) = (   0.7500000   0.3906250   0.3593750), wk =   0.0099502
        k(  157) = (   0.7500000   0.3875000   0.3625000), wk =   0.0099502
        k(  158) = (   0.7500000   0.3843750   0.3656250), wk =   0.0099502
        k(  159) = (   0.7500000   0.3812500   0.3687500), wk =   0.0099502
        k(  160) = (   0.7500000   0.3781250   0.3718750), wk =   0.0099502
        k(  161) = (   0.7500000   0.3750000   0.3750000), wk =   0.0099502
        k(  162) = (   0.7312500   0.3656250   0.3656250), wk =   0.0099502
        k(  163) = (   0.7125000   0.3562500   0.3562500), wk =   0.0099502
        k(  164) = (   0.6937500   0.3468750   0.3468750), wk =   0.0099502
        k(  165) = (   0.6750000   0.3375000   0.3375000), wk =   0.0099502
        k(  166) = (   0.6562500   0.3281250   0.3281250), wk =   0.0099502
        k(  167) = (   0.6375000   0.3187500   0.3187500), wk =   0.0099502
        k(  168) = (   0.6187500   0.3093750   0.3093750), wk =   0.0099502
        k(  169) = (   0.6000000   0.3000000   0.3000000), wk =   0.0099502
        k(  170) = (   0.5812500   0.2906250   0.2906250), wk =   0.0099502
        k(  171) = (   0.5625000   0.2812500   0.2812500), wk =   0.0099502
        k(  172) = (   0.5437500   0.2718750   0.2718750), wk =   0.0099502
        k(  173) = (   0.5250000   0.2625000   0.2625000), wk =   0.0099502
        k(  174) = (   0.5062500   0.2531250   0.2531250), wk =   0.0099502
        k(  175) = (   0.4875000   0.2437500   0.2437500), wk =   0.0099502
        k(  176) = (   0.4687500   0.2343750   0.2343750), wk =   0.0099502
        k(  177) = (   0.4500000   0.2250000   0.2250000), wk =   0.0099502
        k(  178) = (   0.4312500   0.2156250   0.2156250), wk =   0.0099502
        k(  179) = (   0.4125000   0.2062500   0.2062500), wk =   0.0099502
        k(  180) = (   0.3937500   0.1968750   0.1968750), wk =   0.0099502
        k(  181) = (   0.3750000   0.1875000   0.1875000), wk =   0.0099502
        k(  182) = (   0.3562500   0.1781250   0.1781250), wk =   0.0099502
        k(  183) = (   0.3375000   0.1687500   0.1687500), wk =   0.0099502
        k(  184) = (   0.3187500   0.1593750   0.1593750), wk =   0.0099502
        k(  185) = (   0.3000000   0.1500000   0.1500000), wk =   0.0099502
        k(  186) = (   0.2812500   0.1406250   0.1406250), wk =   0.0099502
        k(  187) = (   0.2625000   0.1312500   0.1312500), wk =   0.0099502
        k(  188) = (   0.2437500   0.1218750   0.1218750), wk =   0.0099502
        k(  189) = (   0.2250000   0.1125000   0.1125000), wk =   0.0099502
        k(  190) = (   0.2062500   0.1031250   0.1031250), wk =   0.0099502
        k(  191) = (   0.1875000   0.0937500   0.0937500), wk =   0.0099502
        k(  192) = (   0.1687500   0.0843750   0.0843750), wk =   0.0099502
        k(  193) = (   0.1500000   0.0750000   0.0750000), wk =   0.0099502
        k(  194) = (   0.1312500   0.0656250   0.0656250), wk =   0.0099502
        k(  195) = (   0.1125000   0.0562500   0.0562500), wk =   0.0099502
        k(  196) = (   0.0937500   0.0468750   0.0468750), wk =   0.0099502
        k(  197) = (   0.0750000   0.0375000   0.0375000), wk =   0.0099502
        k(  198) = (   0.0562500   0.0281250   0.0281250), wk =   0.0099502
        k(  199) = (   0.0375000   0.0187500   0.0187500), wk =   0.0099502
        k(  200) = (   0.0187500   0.0093750   0.0093750), wk =   0.0099502
        k(  201) = (   0.0000000   0.0000000   0.0000000), wk =   0.0099502

     Dense  grid:    16625 G-vectors     FFT dimensions: (  36,  36,  36)

     Dynamical RAM for                 wfc:       0.32 MB

     Dynamical RAM for     wfc (w. buffer):       0.32 MB

     Dynamical RAM for           str. fact:       0.25 MB

     Dynamical RAM for           local pot:       0.00 MB

     Dynamical RAM for          nlocal pot:       0.25 MB

     Dynamical RAM for                qrad:       0.11 MB

     Dynamical RAM for          rho,v,vnew:       1.83 MB

     Dynamical RAM for           G-vectors:       1.08 MB

     Dynamical RAM for          h,s,v(r/c):       0.02 MB

     Dynamical RAM for          <psi|beta>:       0.00 MB

     Dynamical RAM for                 psi:       0.64 MB

     Dynamical RAM for                hpsi:       0.64 MB

     Dynamical RAM for      wfcinit/wfcrot:       0.64 MB

     Estimated static dynamical RAM per process >       6.13 MB

     Estimated max dynamical RAM per process >       7.42 MB

     The potential is recalculated from file :
     ./SCRATCH/silicon.save/charge-density

     Starting wfcs are    8 randomized atomic wfcs +    2 random wfcs

     Band Structure Calculation
     Davidson diagonalization with overlap

     Computing kpt #:     1  of   201
     total cpu time spent up to now is        0.3 secs

     Computing kpt #:     2  of   201
     total cpu time spent up to now is        0.5 secs

     Computing kpt #:     3  of   201
     total cpu time spent up to now is        0.7 secs

     Computing kpt #:     4  of   201
     total cpu time spent up to now is        0.9 secs

     Computing kpt #:     5  of   201
     total cpu time spent up to now is        1.2 secs

     Computing kpt #:     6  of   201
     total cpu time spent up to now is        1.5 secs

     Computing kpt #:     7  of   201
     total cpu time spent up to now is        1.7 secs

     Computing kpt #:     8  of   201
     total cpu time spent up to now is        1.9 secs

     Computing kpt #:     9  of   201
     total cpu time spent up to now is        2.1 secs

     Computing kpt #:    10  of   201
     total cpu time spent up to now is        2.2 secs

     Computing kpt #:    11  of   201
     total cpu time spent up to now is        2.4 secs

     Computing kpt #:    12  of   201
     total cpu time spent up to now is        2.6 secs

     Computing kpt #:    13  of   201
     total cpu time spent up to now is        2.8 secs

     Computing kpt #:    14  of   201
     total cpu time spent up to now is        3.0 secs

     Computing kpt #:    15  of   201
     total cpu time spent up to now is        3.1 secs

     Computing kpt #:    16  of   201
     total cpu time spent up to now is        3.3 secs

     Computing kpt #:    17  of   201
     total cpu time spent up to now is        3.5 secs

     Computing kpt #:    18  of   201
     total cpu time spent up to now is        3.7 secs

     Computing kpt #:    19  of   201
     total cpu time spent up to now is        3.9 secs

     Computing kpt #:    20  of   201
     total cpu time spent up to now is        4.0 secs

     Computing kpt #:    21  of   201
     total cpu time spent up to now is        4.2 secs

     Computing kpt #:    22  of   201
     total cpu time spent up to now is        4.4 secs

     Computing kpt #:    23  of   201
     total cpu time spent up to now is        4.6 secs

     Computing kpt #:    24  of   201
     total cpu time spent up to now is        4.8 secs

     Computing kpt #:    25  of   201
     total cpu time spent up to now is        4.9 secs

     Computing kpt #:    26  of   201
     total cpu time spent up to now is        5.1 secs

     Computing kpt #:    27  of   201
     total cpu time spent up to now is        5.3 secs

     Computing kpt #:    28  of   201
     total cpu time spent up to now is        5.5 secs

     Computing kpt #:    29  of   201
     total cpu time spent up to now is        5.6 secs

     Computing kpt #:    30  of   201
     total cpu time spent up to now is        5.8 secs

     Computing kpt #:    31  of   201
     total cpu time spent up to now is        6.0 secs

     Computing kpt #:    32  of   201
     total cpu time spent up to now is        6.2 secs

     Computing kpt #:    33  of   201
     total cpu time spent up to now is        6.4 secs

     Computing kpt #:    34  of   201
     total cpu time spent up to now is        6.5 secs

     Computing kpt #:    35  of   201
     total cpu time spent up to now is        6.8 secs

     Computing kpt #:    36  of   201
     total cpu time spent up to now is        7.0 secs

     Computing kpt #:    37  of   201
     total cpu time spent up to now is        7.2 secs

     Computing kpt #:    38  of   201
     total cpu time spent up to now is        7.3 secs

     Computing kpt #:    39  of   201
     total cpu time spent up to now is        7.6 secs

     Computing kpt #:    40  of   201
     total cpu time spent up to now is        7.9 secs

     Computing kpt #:    41  of   201
     total cpu time spent up to now is        8.1 secs

     Computing kpt #:    42  of   201
     total cpu time spent up to now is        8.3 secs

     Computing kpt #:    43  of   201
     total cpu time spent up to now is        8.5 secs

     Computing kpt #:    44  of   201
     total cpu time spent up to now is        8.6 secs

     Computing kpt #:    45  of   201
     total cpu time spent up to now is        8.8 secs

     Computing kpt #:    46  of   201
     total cpu time spent up to now is        9.0 secs

     Computing kpt #:    47  of   201
     total cpu time spent up to now is        9.2 secs

     Computing kpt #:    48  of   201
     total cpu time spent up to now is        9.4 secs

     Computing kpt #:    49  of   201
     total cpu time spent up to now is        9.6 secs

     Computing kpt #:    50  of   201
     total cpu time spent up to now is        9.8 secs

     Computing kpt #:    51  of   201
     total cpu time spent up to now is        9.9 secs

     Computing kpt #:    52  of   201
     total cpu time spent up to now is       10.1 secs

     Computing kpt #:    53  of   201
     total cpu time spent up to now is       10.3 secs

     Computing kpt #:    54  of   201
     total cpu time spent up to now is       10.5 secs

     Computing kpt #:    55  of   201
     total cpu time spent up to now is       10.7 secs

     Computing kpt #:    56  of   201
     total cpu time spent up to now is       10.9 secs

     Computing kpt #:    57  of   201
     total cpu time spent up to now is       11.0 secs

     Computing kpt #:    58  of   201
     total cpu time spent up to now is       11.2 secs

     Computing kpt #:    59  of   201
     total cpu time spent up to now is       11.4 secs

     Computing kpt #:    60  of   201
     total cpu time spent up to now is       11.6 secs

     Computing kpt #:    61  of   201
     total cpu time spent up to now is       11.8 secs

     Computing kpt #:    62  of   201
     total cpu time spent up to now is       11.9 secs

     Computing kpt #:    63  of   201
     total cpu time spent up to now is       12.1 secs

     Computing kpt #:    64  of   201
     total cpu time spent up to now is       12.3 secs

     Computing kpt #:    65  of   201
     total cpu time spent up to now is       12.5 secs

     Computing kpt #:    66  of   201
     total cpu time spent up to now is       12.7 secs

     Computing kpt #:    67  of   201
     total cpu time spent up to now is       12.9 secs

     Computing kpt #:    68  of   201
     total cpu time spent up to now is       13.0 secs

     Computing kpt #:    69  of   201
     total cpu time spent up to now is       13.2 secs

     Computing kpt #:    70  of   201
     total cpu time spent up to now is       13.4 secs

     Computing kpt #:    71  of   201
     total cpu time spent up to now is       13.6 secs

     Computing kpt #:    72  of   201
     total cpu time spent up to now is       13.8 secs

     Computing kpt #:    73  of   201
     total cpu time spent up to now is       13.9 secs

     Computing kpt #:    74  of   201
     total cpu time spent up to now is       14.1 secs

     Computing kpt #:    75  of   201
     total cpu time spent up to now is       14.3 secs

     Computing kpt #:    76  of   201
     total cpu time spent up to now is       14.5 secs

     Computing kpt #:    77  of   201
     total cpu time spent up to now is       14.7 secs

     Computing kpt #:    78  of   201
     total cpu time spent up to now is       14.9 secs

     Computing kpt #:    79  of   201
     total cpu time spent up to now is       15.1 secs

     Computing kpt #:    80  of   201
     total cpu time spent up to now is       15.3 secs

     Computing kpt #:    81  of   201
     total cpu time spent up to now is       15.6 secs

     Computing kpt #:    82  of   201
     total cpu time spent up to now is       15.8 secs

     Computing kpt #:    83  of   201
     total cpu time spent up to now is       16.0 secs

     Computing kpt #:    84  of   201
     total cpu time spent up to now is       16.2 secs

     Computing kpt #:    85  of   201
     total cpu time spent up to now is       16.4 secs

     Computing kpt #:    86  of   201
     total cpu time spent up to now is       16.6 secs

     Computing kpt #:    87  of   201
     total cpu time spent up to now is       16.8 secs

     Computing kpt #:    88  of   201
     total cpu time spent up to now is       17.0 secs

     Computing kpt #:    89  of   201
     total cpu time spent up to now is       17.2 secs

     Computing kpt #:    90  of   201
     total cpu time spent up to now is       17.4 secs

     Computing kpt #:    91  of   201
     total cpu time spent up to now is       17.6 secs

     Computing kpt #:    92  of   201
     total cpu time spent up to now is       17.8 secs

     Computing kpt #:    93  of   201
     total cpu time spent up to now is       18.0 secs

     Computing kpt #:    94  of   201
     total cpu time spent up to now is       18.2 secs

     Computing kpt #:    95  of   201
     total cpu time spent up to now is       18.4 secs

     Computing kpt #:    96  of   201
     total cpu time spent up to now is       18.6 secs

     Computing kpt #:    97  of   201
     total cpu time spent up to now is       18.7 secs

     Computing kpt #:    98  of   201
     total cpu time spent up to now is       18.9 secs

     Computing kpt #:    99  of   201
     total cpu time spent up to now is       19.1 secs

     Computing kpt #:   100  of   201
     total cpu time spent up to now is       19.3 secs

     Computing kpt #:   101  of   201
     total cpu time spent up to now is       19.5 secs

     Computing kpt #:   102  of   201
     total cpu time spent up to now is       19.7 secs

     Computing kpt #:   103  of   201
     total cpu time spent up to now is       19.8 secs

     Computing kpt #:   104  of   201
     total cpu time spent up to now is       20.0 secs

     Computing kpt #:   105  of   201
     total cpu time spent up to now is       20.2 secs

     Computing kpt #:   106  of   201
     total cpu time spent up to now is       20.4 secs

     Computing kpt #:   107  of   201
     total cpu time spent up to now is       20.6 secs

     Computing kpt #:   108  of   201
     total cpu time spent up to now is       20.8 secs

     Computing kpt #:   109  of   201
     total cpu time spent up to now is       20.9 secs

     Computing kpt #:   110  of   201
     total cpu time spent up to now is       21.1 secs

     Computing kpt #:   111  of   201
     total cpu time spent up to now is       21.3 secs

     Computing kpt #:   112  of   201
     total cpu time spent up to now is       21.5 secs

     Computing kpt #:   113  of   201
     total cpu time spent up to now is       21.7 secs

     Computing kpt #:   114  of   201
     total cpu time spent up to now is       21.8 secs

     Computing kpt #:   115  of   201
     total cpu time spent up to now is       22.0 secs

     Computing kpt #:   116  of   201
     total cpu time spent up to now is       22.2 secs

     Computing kpt #:   117  of   201
     total cpu time spent up to now is       22.4 secs

     Computing kpt #:   118  of   201
     total cpu time spent up to now is       22.6 secs

     Computing kpt #:   119  of   201
     total cpu time spent up to now is       22.7 secs

     Computing kpt #:   120  of   201
     total cpu time spent up to now is       22.9 secs

     Computing kpt #:   121  of   201
     total cpu time spent up to now is       23.1 secs

     Computing kpt #:   122  of   201
     total cpu time spent up to now is       23.3 secs

     Computing kpt #:   123  of   201
     total cpu time spent up to now is       23.4 secs

     Computing kpt #:   124  of   201
     total cpu time spent up to now is       23.6 secs

     Computing kpt #:   125  of   201
     total cpu time spent up to now is       23.8 secs

     Computing kpt #:   126  of   201
     total cpu time spent up to now is       23.9 secs

     Computing kpt #:   127  of   201
     total cpu time spent up to now is       24.1 secs

     Computing kpt #:   128  of   201
     total cpu time spent up to now is       24.3 secs

     Computing kpt #:   129  of   201
     total cpu time spent up to now is       24.5 secs

     Computing kpt #:   130  of   201
     total cpu time spent up to now is       24.7 secs

     Computing kpt #:   131  of   201
     total cpu time spent up to now is       24.8 secs

     Computing kpt #:   132  of   201
     total cpu time spent up to now is       25.0 secs

     Computing kpt #:   133  of   201
     total cpu time spent up to now is       25.2 secs

     Computing kpt #:   134  of   201
     total cpu time spent up to now is       25.4 secs

     Computing kpt #:   135  of   201
     total cpu time spent up to now is       25.5 secs

     Computing kpt #:   136  of   201
     total cpu time spent up to now is       25.7 secs

     Computing kpt #:   137  of   201
     total cpu time spent up to now is       25.9 secs

     Computing kpt #:   138  of   201
     total cpu time spent up to now is       26.1 secs

     Computing kpt #:   139  of   201
     total cpu time spent up to now is       26.3 secs

     Computing kpt #:   140  of   201
     total cpu time spent up to now is       26.4 secs

     Computing kpt #:   141  of   201
     total cpu time spent up to now is       26.6 secs

     Computing kpt #:   142  of   201
     total cpu time spent up to now is       26.8 secs

     Computing kpt #:   143  of   201
     total cpu time spent up to now is       27.0 secs

     Computing kpt #:   144  of   201
     total cpu time spent up to now is       27.2 secs

     Computing kpt #:   145  of   201
     total cpu time spent up to now is       27.3 secs

     Computing kpt #:   146  of   201
     total cpu time spent up to now is       27.5 secs

     Computing kpt #:   147  of   201
     total cpu time spent up to now is       27.7 secs

     Computing kpt #:   148  of   201
     total cpu time spent up to now is       27.9 secs

     Computing kpt #:   149  of   201
     total cpu time spent up to now is       28.1 secs

     Computing kpt #:   150  of   201
     total cpu time spent up to now is       28.2 secs

     Computing kpt #:   151  of   201
     total cpu time spent up to now is       28.4 secs

     Computing kpt #:   152  of   201
     total cpu time spent up to now is       28.6 secs

     Computing kpt #:   153  of   201
     total cpu time spent up to now is       28.8 secs

     Computing kpt #:   154  of   201
     total cpu time spent up to now is       29.0 secs

     Computing kpt #:   155  of   201
     total cpu time spent up to now is       29.2 secs

     Computing kpt #:   156  of   201
     total cpu time spent up to now is       29.3 secs

     Computing kpt #:   157  of   201
     total cpu time spent up to now is       29.5 secs

     Computing kpt #:   158  of   201
     total cpu time spent up to now is       29.7 secs

     Computing kpt #:   159  of   201
     total cpu time spent up to now is       29.9 secs

     Computing kpt #:   160  of   201
     total cpu time spent up to now is       30.1 secs

     Computing kpt #:   161  of   201
     total cpu time spent up to now is       30.2 secs

     Computing kpt #:   162  of   201
     total cpu time spent up to now is       30.4 secs

     Computing kpt #:   163  of   201
     total cpu time spent up to now is       30.6 secs

     Computing kpt #:   164  of   201
     total cpu time spent up to now is       30.7 secs

     Computing kpt #:   165  of   201
     total cpu time spent up to now is       30.9 secs

     Computing kpt #:   166  of   201
     total cpu time spent up to now is       31.1 secs

     Computing kpt #:   167  of   201
     total cpu time spent up to now is       31.2 secs

     Computing kpt #:   168  of   201
     total cpu time spent up to now is       31.4 secs

     Computing kpt #:   169  of   201
     total cpu time spent up to now is       31.6 secs

     Computing kpt #:   170  of   201
     total cpu time spent up to now is       31.7 secs

     Computing kpt #:   171  of   201
     total cpu time spent up to now is       31.9 secs

     Computing kpt #:   172  of   201
     total cpu time spent up to now is       32.1 secs

     Computing kpt #:   173  of   201
     total cpu time spent up to now is       32.3 secs

     Computing kpt #:   174  of   201
     total cpu time spent up to now is       32.4 secs

     Computing kpt #:   175  of   201
     total cpu time spent up to now is       32.6 secs

     Computing kpt #:   176  of   201
     total cpu time spent up to now is       32.8 secs

     Computing kpt #:   177  of   201
     total cpu time spent up to now is       33.0 secs

     Computing kpt #:   178  of   201
     total cpu time spent up to now is       33.1 secs

     Computing kpt #:   179  of   201
     total cpu time spent up to now is       33.4 secs

     Computing kpt #:   180  of   201
     total cpu time spent up to now is       33.6 secs

     Computing kpt #:   181  of   201
     total cpu time spent up to now is       33.8 secs

     Computing kpt #:   182  of   201
     total cpu time spent up to now is       33.9 secs

     Computing kpt #:   183  of   201
     total cpu time spent up to now is       34.1 secs

     Computing kpt #:   184  of   201
     total cpu time spent up to now is       34.3 secs

     Computing kpt #:   185  of   201
     total cpu time spent up to now is       34.5 secs

     Computing kpt #:   186  of   201
     total cpu time spent up to now is       34.7 secs

     Computing kpt #:   187  of   201
     total cpu time spent up to now is       34.8 secs

     Computing kpt #:   188  of   201
     total cpu time spent up to now is       35.0 secs

     Computing kpt #:   189  of   201
     total cpu time spent up to now is       35.2 secs

     Computing kpt #:   190  of   201
     total cpu time spent up to now is       35.4 secs

     Computing kpt #:   191  of   201
     total cpu time spent up to now is       35.6 secs

     Computing kpt #:   192  of   201
     total cpu time spent up to now is       35.8 secs

     Computing kpt #:   193  of   201
     total cpu time spent up to now is       35.9 secs

     Computing kpt #:   194  of   201
     total cpu time spent up to now is       36.1 secs

     Computing kpt #:   195  of   201
     total cpu time spent up to now is       36.3 secs

     Computing kpt #:   196  of   201
     total cpu time spent up to now is       36.5 secs

     Computing kpt #:   197  of   201
     total cpu time spent up to now is       36.8 secs

     Computing kpt #:   198  of   201
     total cpu time spent up to now is       37.0 secs

     Computing kpt #:   199  of   201
     total cpu time spent up to now is       37.3 secs

     Computing kpt #:   200  of   201
     total cpu time spent up to now is       37.6 secs

     Computing kpt #:   201  of   201
     total cpu time spent up to now is       37.7 secs

     ethr =  1.25E-10,  avg # of iterations = 31.9

     total cpu time spent up to now is       37.7 secs

     End of band structure calculation

          k = 0.0000 0.0000 1.0000 (  2100 PWs)   bands (ev):

    -1.6269  -1.6269   3.3087   3.3087   6.8377   6.8377  16.3397  16.3397
    17.1493  17.1493

          k = 0.0000 0.0000 0.9750 (  2092 PWs)   bands (ev):

    -1.8214  -1.4292   3.3112   3.3112   6.7972   6.8858  16.2683  16.2683
    17.2215  17.2215

          k = 0.0000 0.0000 0.9500 (  2084 PWs)   bands (ev):

    -2.0125  -1.2283   3.3188   3.3188   6.7641   6.9414  16.1006  16.1006
    17.3915  17.3915

          k = 0.0000 0.0000 0.9250 (  2080 PWs)   bands (ev):

    -2.2000  -1.0244   3.3313   3.3313   6.7383   7.0047  15.8926  15.8926
    17.6029  17.6029

          k = 0.0000 0.0000 0.9000 (  2080 PWs)   bands (ev):

    -2.3837  -0.8178   3.3488   3.3488   6.7196   7.0759  15.6685  15.6685
    17.8310  17.8310

          k = 0.0000 0.0000 0.8750 (  2088 PWs)   bands (ev):

    -2.5637  -0.6085   3.3714   3.3714   6.7080   7.1550  15.4374  15.4374
    17.6674  18.0658

          k = 0.0000 0.0000 0.8500 (  2096 PWs)   bands (ev):

    -2.7397  -0.3969   3.3989   3.3989   6.7033   7.2421  15.2031  15.2031
    17.4607  17.8602

          k = 0.0000 0.0000 0.8250 (  2100 PWs)   bands (ev):

    -2.9116  -0.1829   3.4314   3.4314   6.7054   7.3372  14.9677  14.9677
    17.2599  17.6190

          k = 0.0000 0.0000 0.8000 (  2092 PWs)   bands (ev):

[...]
    15.0590  16.0565

          k =-0.5000 0.3625 0.6375 (  2088 PWs)   bands (ev):

    -3.2791  -0.7546   3.9089   4.6781   8.5977   9.3257  10.3109  14.2738
    14.8720  16.0255

          k =-0.5000 0.3500 0.6500 (  2088 PWs)   bands (ev):

    -3.2476  -0.7397   3.7661   4.6192   8.6836   9.3054  10.4706  14.2786
    14.6871  16.0229

          k =-0.5000 0.3375 0.6625 (  2088 PWs)   bands (ev):

    -3.2135  -0.7244   3.6236   4.5558   8.7650   9.2884  10.6437  14.2576
    14.5044  16.0504

          k =-0.5000 0.3250 0.6750 (  2082 PWs)   bands (ev):

    -3.1767  -0.7088   3.4823   4.4880   8.8427   9.2750  10.8291  14.2114
    14.3242  16.1064

          k =-0.5000 0.3125 0.6875 (  2088 PWs)   bands (ev):

    -3.1373  -0.6932   3.3431   4.4163   8.9174   9.2658  11.0253  14.1430
    14.1464  16.1866

          k =-0.5000 0.3000 0.7000 (  2084 PWs)   bands (ev):

    -3.0953  -0.6779   3.2066   4.3407   8.9898   9.2610  11.2310  13.9713
    14.0565  16.2852

          k =-0.5000 0.2875 0.7125 (  2088 PWs)   bands (ev):

    -3.0507  -0.6633   3.0737   4.2617   9.0607   9.2608  11.4450  13.7987
    13.9561  16.3962

          k =-0.5000 0.2750 0.7250 (  2090 PWs)   bands (ev):

    -3.0035  -0.6498   2.9451   4.1796   9.1306   9.2654  11.6662  13.6289
    13.8454  16.5141

          k =-0.5000 0.2625 0.7375 (  2092 PWs)   bands (ev):

    -2.9538  -0.6379   2.8215   4.0946   9.2002   9.2749  11.8937  13.4619
    13.7272  16.6337

          k =-0.5000 0.2500 0.7500 (  2092 PWs)   bands (ev):

    -2.9017  -0.6280   2.7036   4.0072   9.2700   9.2894  12.1265  13.2977
    13.6038  16.7509

          k =-0.5000 0.2375 0.7625 (  2092 PWs)   bands (ev):

    -2.8470  -0.6207   2.5922   3.9177   9.3088   9.3402  12.3639  13.1366
    13.4767  16.8619

          k =-0.5000 0.2250 0.7750 (  2086 PWs)   bands (ev):

    -2.7900  -0.6167   2.4879   3.8264   9.3332   9.4112  12.6048  12.9790
    13.3472  16.9641

          k =-0.5000 0.2125 0.7875 (  2088 PWs)   bands (ev):

    -2.7306  -0.6165   2.3916   3.7337   9.3624   9.4831  12.8080  12.8657
    13.2163  17.0556

          k =-0.5000 0.2000 0.8000 (  2088 PWs)   bands (ev):

    -2.6689  -0.6208   2.3040   3.6399   9.3963   9.5562  12.6683  13.0847
    13.1012  17.1356

          k =-0.5000 0.1875 0.8125 (  2090 PWs)   bands (ev):

    -2.6049  -0.6302   2.2258   3.5454   9.4349   9.6307  12.5199  12.9530
    13.3510  17.2036

          k =-0.5000 0.1750 0.8250 (  2090 PWs)   bands (ev):

    -2.5388  -0.6453   2.1576   3.4505   9.4780   9.7064  12.3744  12.8216
    13.6030  17.2600

          k =-0.5000 0.1625 0.8375 (  2100 PWs)   bands (ev):

    -2.4705  -0.6666   2.1000   3.3556   9.5256   9.7835  12.2323  12.6910
    13.8563  17.3051

          k =-0.5000 0.1500 0.8500 (  2098 PWs)   bands (ev):

    -2.4002  -0.6943   2.0533   3.2609   9.5774   9.8618  12.0937  12.5614
    14.1101  17.3394

          k =-0.5000 0.1375 0.8625 (  2098 PWs)   bands (ev):

    -2.3280  -0.7287   2.0177   3.1668   9.6333   9.9413  11.9591  12.4332
    14.3639  17.3632

          k =-0.5000 0.1250 0.8750 (  2098 PWs)   bands (ev):

    -2.2540  -0.7697   1.9933   3.0737   9.6931  10.0216  11.8286  12.3066
    14.6166  17.3767

          k =-0.5000 0.1125 0.8875 (  2100 PWs)   bands (ev):

    -2.1783  -0.8171   1.9798   2.9817   9.7567  10.1024  11.7030  12.1818
    14.8675  17.3796

          k =-0.5000 0.1000 0.9000 (  2108 PWs)   bands (ev):

    -2.1009  -0.8707   1.9770   2.8913   9.8239  10.1830  11.5828  12.0592
    15.1153  17.3715

          k =-0.5000 0.0875 0.9125 (  2108 PWs)   bands (ev):

    -2.0222  -0.9299   1.9843   2.8028   9.8943  10.2621  11.4695  11.9390
    15.3588  17.3518

          k =-0.5000 0.0750 0.9250 (  2112 PWs)   bands (ev):

    -1.9422  -0.9942   2.0011   2.7165   9.9677  10.3377  11.3649  11.8216
    15.5963  17.3194

          k =-0.5000 0.0625 0.9375 (  2110 PWs)   bands (ev):

    -1.8612  -1.0628   2.0269   2.6327  10.0435  10.4065  11.2726  11.7075
    15.8261  17.2730

          k =-0.5000 0.0500 0.9500 (  2118 PWs)   bands (ev):

    -1.7794  -1.1352   2.0608   2.5518  10.1212  10.4625  11.1987  11.5972
    16.0460  17.2112

          k =-0.5000 0.0375 0.9625 (  2120 PWs)   bands (ev):

    -1.6970  -1.2107   2.1023   2.4742  10.1998  10.4969  11.1518  11.4917
    16.2536  17.1322

          k =-0.5000 0.0250 0.9750 (  2120 PWs)   bands (ev):

    -1.6144  -1.2887   2.1506   2.4003  10.2777  10.5007  11.1411  11.3925
    16.4466  17.0347

          k =-0.5000 0.0125 0.9875 (  2120 PWs)   bands (ev):

    -1.5319  -1.3685   2.2051   2.3305  10.3525  10.4725  11.1679  11.3021
    16.6228  16.9175

          k =-0.5000 0.0000 1.0000 (  2120 PWs)   bands (ev):

    -1.4498  -1.4498   2.2652   2.2652  10.4199  10.4199  11.2249  11.2249
    16.7801  16.7801

          k =-0.5062 0.0000 0.9937 (  2120 PWs)   bands (ev):

    -1.4783  -1.4215   2.2433   2.2885  10.3850  10.4394  11.2146  11.2519
    16.7271  16.8305

          k =-0.5125 0.0000 0.9875 (  2120 PWs)   bands (ev):

    -1.5061  -1.3944   2.2218   2.3138  10.3261  10.4546  11.2300  11.2843
    16.6724  16.8771

          k =-0.5188 0.0000 0.9813 (  2120 PWs)   bands (ev):

    -1.5333  -1.3686   2.2008   2.3411  10.2489  10.4657  11.2654  11.3218
    16.6162  16.9192

          k =-0.5250 0.0000 0.9750 (  2120 PWs)   bands (ev):

    -1.5597  -1.3440   2.1802   2.3705  10.1589  10.4732  11.3153  11.3641
    16.5585  16.9559

          k =-0.5312 0.0000 0.9688 (  2122 PWs)   bands (ev):

    -1.5854  -1.3207   2.1602   2.4018  10.0608  10.4774  11.3751  11.4106
    16.4996  16.9866

          k =-0.5375 0.0000 0.9625 (  2114 PWs)   bands (ev):

    -1.6104  -1.2986   2.1407   2.4351   9.9574  10.4789  11.4420  11.4610
    16.4394  17.0103

          k =-0.5437 0.0000 0.9562 (  2115 PWs)   bands (ev):

    -1.6347  -1.2776   2.1217   2.4702   9.8509  10.4780  11.5138  11.5147
    16.3781  17.0263

          k =-0.5500 0.0000 0.9500 (  2108 PWs)   bands (ev):

    -1.6582  -1.2579   2.1031   2.5070   9.7425  10.4753  11.5712  11.5894
    16.3158  17.0338

          k =-0.5563 0.0000 0.9438 (  2108 PWs)   bands (ev):

    -1.6811  -1.2393   2.0852   2.5456   9.6332  10.4711  11.6303  11.6678
    16.2524  17.0323

          k =-0.5625 0.0000 0.9375 (  2108 PWs)   bands (ev):

    -1.7032  -1.2218   2.0677   2.5859   9.5236  10.4657  11.6916  11.7485
    16.1881  17.0216

          k =-0.5687 0.0000 0.9312 (  2108 PWs)   bands (ev):

    -1.7246  -1.2054   2.0507   2.6277   9.4141  10.4593  11.7548  11.8311
    16.1229  17.0016

          k =-0.5750 0.0000 0.9250 (  2106 PWs)   bands (ev):

    -1.7453  -1.1900   2.0343   2.6709   9.3052  10.4522  11.8196  11.9152
    16.0568  16.9725

          k =-0.5813 0.0000 0.9188 (  2106 PWs)   bands (ev):

    -1.7653  -1.1756   2.0184   2.7154   9.1971  10.4446  11.8859  12.0007
    15.9899  16.9347

          k =-0.5875 0.0000 0.9125 (  2106 PWs)   bands (ev):

    -1.7846  -1.1623   2.0031   2.7612   9.0900  10.4366  11.9535  12.0874
    15.9223  16.8890

          k =-0.5938 0.0000 0.9062 (  2108 PWs)   bands (ev):

    -1.8031  -1.1498   1.9883   2.8081   8.9842  10.4283  12.0223  12.1752
    15.8539  16.8360

          k =-0.6000 0.0000 0.9000 (  2102 PWs)   bands (ev):

    -1.8209  -1.1383   1.9741   2.8559   8.8798  10.4199  12.0920  12.2639
    15.7849  16.7765

          k =-0.6062 0.0000 0.8937 (  2106 PWs)   bands (ev):

    -1.8380  -1.1276   1.9604   2.9045   8.7769  10.4115  12.1627  12.3535
    15.7152  16.7112

          k =-0.6125 0.0000 0.8875 (  2106 PWs)   bands (ev):

    -1.8544  -1.1177   1.9473   2.9539   8.6759  10.4031  12.2342  12.4439
    15.6449  16.6409

          k =-0.6188 0.0000 0.8813 (  2098 PWs)   bands (ev):

    -1.8700  -1.1086   1.9347   3.0037   8.5768  10.3948  12.3064  12.5351
    15.5741  16.5662

          k =-0.6250 0.0000 0.8750 (  2098 PWs)   bands (ev):

    -1.8849  -1.1002   1.9227   3.0538   8.4798  10.3867  12.3792  12.6269
    15.5027  16.4877

          k =-0.6312 0.0000 0.8687 (  2098 PWs)   bands (ev):

    -1.8991  -1.0925   1.9113   3.1041   8.3852  10.3788  12.4525  12.7195
    15.4308  16.4060

          k =-0.6375 0.0000 0.8625 (  2098 PWs)   bands (ev):

    -1.9126  -1.0854   1.9004   3.1543   8.2930  10.3711  12.5264  12.8126
    15.3585  16.3214

          k =-0.6438 0.0000 0.8563 (  2102 PWs)   bands (ev):

    -1.9254  -1.0789   1.8901   3.2043   8.2035  10.3637  12.6007  12.9064
    15.2857  16.2344

          k =-0.6500 0.0000 0.8500 (  2101 PWs)   bands (ev):

    -1.9374  -1.0731   1.8804   3.2537   8.1169  10.3565  12.6753  13.0007
    15.2126  16.1452

          k =-0.6562 0.0000 0.8438 (  2101 PWs)   bands (ev):

    -1.9487  -1.0677   1.8713   3.3024   8.0334  10.3498  12.7501  13.0955
    15.1392  16.0543

          k =-0.6625 0.0000 0.8375 (  2099 PWs)   bands (ev):

    -1.9592  -1.0629   1.8627   3.3501   7.9532  10.3433  12.8252  13.1907
    15.0656  15.9619

          k =-0.6687 0.0000 0.8312 (  2099 PWs)   bands (ev):

    -1.9691  -1.0585   1.8548   3.3965   7.8767  10.3373  12.9004  13.2865
    14.9918  15.8682

          k =-0.6750 0.0000 0.8250 (  2099 PWs)   bands (ev):

    -1.9782  -1.0546   1.8474   3.4414   7.8040  10.3316  12.9756  13.3826
    14.9179  15.7734

          k =-0.6813 0.0000 0.8188 (  2099 PWs)   bands (ev):

    -1.9866  -1.0510   1.8406   3.4844   7.7356  10.3264  13.0507  13.4790
    14.8440  15.6778

          k =-0.6875 0.0000 0.8125 (  2099 PWs)   bands (ev):

    -1.9942  -1.0479   1.8343   3.5252   7.6716  10.3216  13.1255  13.5758
    14.7703  15.5814

          k =-0.6937 0.0000 0.8062 (  2101 PWs)   bands (ev):

    -2.0012  -1.0452   1.8287   3.5634   7.6124  10.3172  13.1999  13.6727
    14.6970  15.4845

          k =-0.7000 0.0000 0.8000 (  2105 PWs)   bands (ev):

    -2.0074  -1.0428   1.8237   3.5988   7.5582  10.3132  13.2737  13.7698
    14.6242  15.3872

          k =-0.7063 0.0000 0.7938 (  2099 PWs)   bands (ev):

    -2.0129  -1.0407   1.8192   3.6311   7.5095  10.3097  13.3463  13.8669
    14.5524  15.2898

          k =-0.7125 0.0000 0.7875 (  2101 PWs)   bands (ev):

    -2.0176  -1.0389   1.8154   3.6598   7.4665  10.3066  13.4175  13.9638
    14.4820  15.1925

          k =-0.7188 0.0000 0.7812 (  2097 PWs)   bands (ev):

    -2.0216  -1.0374   1.8121   3.6848   7.4296  10.3041  13.4862  14.0602
    14.4139  15.0957

          k =-0.7250 0.0000 0.7750 (  2097 PWs)   bands (ev):

    -2.0249  -1.0362   1.8094   3.7056   7.3989  10.3019  13.5512  14.1555
    14.3494  15.0001

          k =-0.7312 0.0000 0.7687 (  2097 PWs)   bands (ev):

    -2.0274  -1.0353   1.8073   3.7221   7.3748  10.3003  13.6103  14.2484
    14.2907  14.9068

          k =-0.7375 0.0000 0.7625 (  2097 PWs)   bands (ev):

    -2.0293  -1.0347   1.8058   3.7340   7.3574  10.2991  13.6598  14.2415
    14.3361  14.8188

          k =-0.7438 0.0000 0.7563 (  2097 PWs)   bands (ev):

    -2.0304  -1.0343   1.8049   3.7412   7.3469  10.2984  13.6940  14.2074
    14.4095  14.7452

          k =-0.7500 0.0000 0.7500 (  2097 PWs)   bands (ev):

    -2.0307  -1.0342   1.8047   3.7436   7.3434  10.2981  13.7065  14.1950
    14.4426  14.7120

          k =-0.7312 0.0000 0.7312 (  2093 PWs)   bands (ev):

    -2.1205  -0.9422   1.7468   3.8089   7.4196  10.6784  13.4757  13.9630
    14.2569  14.5121

          k =-0.7125 0.0000 0.7125 (  2097 PWs)   bands (ev):

    -2.2208  -0.8438   1.7082   3.8781   7.5005  11.0612  13.2486  13.7409
    14.0733  14.3176

          k =-0.6937 0.0000 0.6937 (  2097 PWs)   bands (ev):

    -2.3309  -0.7388   1.6887   3.9511   7.5858  11.4413  13.0257  13.5332
    13.8926  14.1290

          k =-0.6750 0.0000 0.6750 (  2097 PWs)   bands (ev):

    -2.4496  -0.6273   1.6876   4.0276   7.6753  11.8072  12.8073  13.3508
    13.7155  13.9470

          k =-0.6562 0.0000 0.6562 (  2095 PWs)   bands (ev):

    -2.5759  -0.5093   1.7041   4.1075   7.7687  12.1272  12.5935  13.2244
    13.5424  13.7719

          k =-0.6375 0.0000 0.6375 (  2103 PWs)   bands (ev):

    -2.7083  -0.3849   1.7369   4.1904   7.8656  12.3198  12.3847  13.2346
    13.3741  13.6042

          k =-0.6188 0.0000 0.6188 (  2097 PWs)   bands (ev):

    -2.8455  -0.2541   1.7850   4.2761   7.9656  12.1809  12.3185  13.2111
    13.4443  13.4469

          k =-0.6000 0.0000 0.6000 (  2097 PWs)   bands (ev):

    -2.9863  -0.1170   1.8472   4.3642   8.0682  11.9823  12.2013  13.0539
    13.2927  13.7818

          k =-0.5813 0.0000 0.5813 (  2095 PWs)   bands (ev):

    -3.1295   0.0265   1.9224   4.4545   8.1729  11.7891  12.0439  12.9032
    13.1498  14.1617

          k =-0.5625 0.0000 0.5625 (  2097 PWs)   bands (ev):

    -3.2739   0.1763   2.0096   4.5466   8.2790  11.6013  11.8737  12.7595
    13.0161  14.5565

          k =-0.5437 0.0000 0.5437 (  2089 PWs)   bands (ev):

    -3.4185   0.3324   2.1077   4.6401   8.3858  11.4192  11.7007  12.6237
    12.8920  14.9527

          k =-0.5250 0.0000 0.5250 (  2093 PWs)   bands (ev):

    -3.5625   0.4946   2.2160   4.7345   8.4922  11.2426  11.5287  12.4964
    12.7779  15.3412

          k =-0.5062 0.0000 0.5062 (  2085 PWs)   bands (ev):

    -3.7052   0.6630   2.3336   4.8294   8.5974  11.0719  11.3597  12.3784
    12.6745  15.7124

          k =-0.4875 0.0000 0.4875 (  2091 PWs)   bands (ev):

    -3.8458   0.8374   2.4598   4.9243   8.7000  10.9069  11.1947  12.2706
    12.5821  16.0547

          k =-0.4688 0.0000 0.4688 (  2091 PWs)   bands (ev):

    -3.9838   1.0178   2.5940   5.0187   8.7988  10.7478  11.0342  12.1740
    12.5013  16.3531

          k =-0.4500 0.0000 0.4500 (  2091 PWs)   bands (ev):

    -4.1187   1.2042   2.7354   5.1120   8.8923  10.5946  10.8787  12.0894
    12.4326  16.5911

          k =-0.4312 0.0000 0.4313 (  2089 PWs)   bands (ev):

    -4.2501   1.3964   2.8836   5.2038   8.9790  10.4474  10.7283  12.0177
    12.3764  16.7550

          k =-0.4125 0.0000 0.4125 (  2089 PWs)   bands (ev):

    -4.3777   1.5943   3.0379   5.2935   9.0571  10.3062  10.5832  11.9595
    12.3332  16.8411

          k =-0.3937 0.0000 0.3937 (  2087 PWs)   bands (ev):

    -4.5009   1.7978   3.1978   5.3805   9.1254  10.1710  10.4433  11.9151
    12.3035  16.8438

          k =-0.3750 0.0000 0.3750 (  2091 PWs)   bands (ev):

    -4.6198   2.0069   3.3627   5.4643   9.1827  10.0420  10.3089  11.8839
    12.2876  16.4444

          k =-0.3562 0.0000 0.3562 (  2079 PWs)   bands (ev):

    -4.7338   2.2212   3.5321   5.5444   9.2281   9.9191  10.1798  11.8647
    12.2859  16.0551

          k =-0.3375 0.0000 0.3375 (  2083 PWs)   bands (ev):

    -4.8430   2.4408   3.7053   5.6204   9.2614   9.8023  10.0561  11.8548
    12.2985  15.6792

          k =-0.3187 0.0000 0.3187 (  2083 PWs)   bands (ev):

    -4.9470   2.6653   3.8818   5.6920   9.2829   9.6917   9.9376  11.8500
    12.3257  15.3208

          k =-0.3000 0.0000 0.3000 (  2087 PWs)   bands (ev):

    -5.0457   2.8945   4.0607   5.7588   9.2935   9.5874   9.8245  11.8443
    12.3674  14.9848

          k =-0.2812 0.0000 0.2812 (  2079 PWs)   bands (ev):

    -5.1389   3.1281   4.2414   5.8206   9.2943   9.4892   9.7165  11.8295
    12.4234  14.6777

          k =-0.2625 0.0000 0.2625 (  2079 PWs)   bands (ev):

    -5.2267   3.3658   4.4230   5.8772   9.2868   9.3973   9.6136  11.7955
    12.4935  14.4077

          k =-0.2437 0.0000 0.2437 (  2079 PWs)   bands (ev):

    -5.3087   3.6071   4.6045   5.9287   9.2724   9.3117   9.5157  11.7317
    12.5771  14.1836

          k =-0.2250 0.0000 0.2250 (  2075 PWs)   bands (ev):

    -5.3850   3.8514   4.7849   5.9750   9.2323   9.2524   9.4228  11.6291
    12.6735  14.0122

          k =-0.2062 0.0000 0.2062 (  2079 PWs)   bands (ev):

    -5.4555   4.0981   4.9630   6.0164   9.1593   9.2282   9.3348  11.4840
    12.7816  13.8953

          k =-0.1875 0.0000 0.1875 (  2083 PWs)   bands (ev):

    -5.5200   4.3462   5.1372   6.0528   9.0925   9.2004   9.2517  11.3003
    12.9002  13.8280

          k =-0.1687 0.0000 0.1687 (  2077 PWs)   bands (ev):

    -5.5786   4.5944   5.3062   6.0846   9.0321   9.1697   9.1734  11.0872
    13.0276  13.8003

          k =-0.1500 0.0000 0.1500 (  2075 PWs)   bands (ev):

    -5.6312   4.8412   5.4679   6.1121   8.9781   9.1003   9.1361  10.8562
    13.1617  13.8007

          k =-0.1312 0.0000 0.1312 (  2079 PWs)   bands (ev):

    -5.6776   5.0843   5.6202   6.1355   8.9303   9.0325   9.0991  10.6193
    13.2997  13.8188

          k =-0.1125 0.0000 0.1125 (  2085 PWs)   bands (ev):

    -5.7180   5.3205   5.7609   6.1551   8.8889   8.9705   9.0576  10.3877
    13.4384  13.8464

          k =-0.0938 0.0000 0.0938 (  2091 PWs)   bands (ev):

    -5.7522   5.5455   5.8872   6.1711   8.8539   8.9151   9.0103  10.1726
    13.5732  13.8774

          k =-0.0750 0.0000 0.0750 (  2091 PWs)   bands (ev):

    -5.7802   5.7530   5.9963   6.1838   8.8252   8.8671   8.9557   9.9849
    13.6988  13.9074

          k =-0.0562 0.0000 0.0562 (  2087 PWs)   bands (ev):

    -5.8020   5.9345   6.0852   6.1935   8.8029   8.8279   8.8954   9.8347
    13.8084  13.9332

          k =-0.0375 0.0000 0.0375 (  2085 PWs)   bands (ev):

    -5.8176   6.0787   6.1512   6.2003   8.7870   8.7986   8.8362   9.7278
    13.8946  13.9529

          k =-0.0187 0.0000 0.0187 (  2085 PWs)   bands (ev):

    -5.8270   6.1728   6.1919   6.2043   8.7774   8.7804   8.7912   9.6651
    13.9502  13.9652

          k = 0.0000 0.0000 0.0000 (  2085 PWs)   bands (ev):

    -5.8301   6.2056   6.2056   6.2056   8.7742   8.7742   8.7742   9.6447
    13.9694  13.9694

     Writing all to output data dir ./SCRATCH/silicon.save/

     init_run     :      0.05s CPU      0.06s WALL (       1 calls)
     electrons    :     37.08s CPU     37.65s WALL (       1 calls)

     Called by init_run:
     wfcinit      :      0.00s CPU      0.00s WALL (       1 calls)
     wfcinit:atom :      0.03s CPU      0.05s WALL (     201 calls)
     wfcinit:wfcr :      1.38s CPU      1.46s WALL (     201 calls)
     potinit      :      0.02s CPU      0.01s WALL (       1 calls)
     hinit0       :      0.02s CPU      0.02s WALL (       1 calls)

     Called by electrons:
     c_bands      :     37.06s CPU     37.65s WALL (       1 calls)
     v_of_rho     :      0.02s CPU      0.01s WALL (       1 calls)
     v_h          :      0.00s CPU      0.00s WALL (       1 calls)
     v_xc         :      0.02s CPU      0.00s WALL (       1 calls)

     Called by c_bands:
     init_us_2    :      0.03s CPU      0.03s WALL (     201 calls)
     init_us_2:cp :      0.03s CPU      0.03s WALL (     201 calls)
     cegterg      :     35.59s CPU     36.00s WALL (     426 calls)

     Called by sum_band:

     Called by *egterg:
     cdiaghg      :      0.58s CPU      0.54s WALL (    6604 calls)
     cegterg:over :      2.84s CPU      3.04s WALL (    6403 calls)
     cegterg:upda :      1.47s CPU      1.39s WALL (    6403 calls)
     cegterg:last :      2.56s CPU      2.53s WALL (    4156 calls)
     h_psi        :     28.47s CPU     29.06s WALL (    7030 calls)
     g_psi        :      0.30s CPU      0.23s WALL (    6403 calls)

     Called by h_psi:
     h_psi:calbec :      0.75s CPU      0.80s WALL (    7030 calls)
     vloc_psi     :     27.08s CPU     27.50s WALL (    7030 calls)
     add_vuspsi   :      0.53s CPU      0.60s WALL (    7030 calls)

     General routines
     calbec       :      0.75s CPU      0.78s WALL (    7030 calls)
     fft          :      0.00s CPU      0.00s WALL (       3 calls)
     fftw         :     24.17s CPU     24.74s WALL (   88006 calls)
     davcio       :      0.00s CPU      0.04s WALL (     402 calls)


     PWSCF        :     37.17s CPU     37.87s WALL


   This run was terminated on:  12:33: 0  12May2024            

=------------------------------------------------------------------------------=
   JOB DONE.
=------------------------------------------------------------------------------=
