
     Program PWSCF v.7.2 starts on  9Jun2024 at 11:41:49 

     This program is part of the open-source Quantum ESPRESSO suite
     for quantum simulation of materials; please cite
         "P. Giannozzi et al., J. Phys.:Condens. Matter 21 395502 (2009);
         "P. Giannozzi et al., J. Phys.:Condens. Matter 29 465901 (2017);
         "P. Giannozzi et al., J. Chem. Phys. 152 154105 (2020);
          URL http://www.quantum-espresso.org", 
     in publications or presentations arising from this work. More details at
     http://www.quantum-espresso.org/quote

     Serial version
     8528 MiB available memory on the printing compute node when the environment starts

     Waiting for input...
     Reading input from standard input

     Current dimensions of program PWSCF are:
     Max number of different atomic species (ntypx) = 10
     Max number of k-points (npk) =  40000
     Max angular momentum in pseudopotentials (lmaxx) =  4


     G-vector sticks info
     --------------------
     sticks:   dense  smooth     PW     G-vecs:    dense   smooth      PW
     Sum         889     889    265                17453    17453    2891

     Using Slab Decomposition



     bravais-lattice index     =            2
     lattice parameter (alat)  =      10.3512  a.u.
     unit-cell volume          =     277.2753 (a.u.)^3
     number of atoms/cell      =            2
     number of atomic types    =            1
     number of electrons       =         8.00
     number of Kohn-Sham states=            4
     kinetic-energy cutoff     =      60.0000  Ry
     charge density cutoff     =     240.0000  Ry
     scf convergence threshold =      1.0E-08
     mixing beta               =       0.7000
     number of iterations used =            8  plain     mixing
     Exchange-correlation= PBE
                           (   1   4   3   4   0   0   0)

     celldm(1)=  10.351193  celldm(2)=   0.000000  celldm(3)=   0.000000
     celldm(4)=   0.000000  celldm(5)=   0.000000  celldm(6)=   0.000000

     crystal axes: (cart. coord. in units of alat)
               a(1) = (  -0.500000   0.000000   0.500000 )  
               a(2) = (   0.000000   0.500000   0.500000 )  
               a(3) = (  -0.500000   0.500000   0.000000 )  

     reciprocal axes: (cart. coord. in units 2 pi/alat)
               b(1) = ( -1.000000 -1.000000  1.000000 )  
               b(2) = (  1.000000  1.000000  1.000000 )  
               b(3) = ( -1.000000  1.000000 -1.000000 )  


     PseudoPot. # 1 for Si read from file:
     /home/paolo/project_labqsm/pseudopotentials/Si_ONCV_PBE-1.2.upf
     MD5 check sum: 7f029a58b69e3aa87b46a36c608bf45e
     Pseudo is Norm-conserving, Zval =  4.0
     Generated using ONCVPSP code by D. R. Hamann
     Using radial grid of  602 points,  4 beta functions with: 
                l(1) =   0
                l(2) =   0
                l(3) =   1
                l(4) =   1

     atomic species   valence    mass     pseudopotential
        Si             4.00    28.08500     Si( 1.00)

     48 Sym. Ops., with inversion, found (24 have fractional translation)



   Cartesian axes

     site n.     atom                  positions (alat units)
         1           Si  tau(   1) = (   0.0000000   0.0000000   0.0000000  )
         2           Si  tau(   2) = (   0.2500000   0.2500000   0.2500000  )

     number of k points=    29
                       cart. coord. in units 2pi/alat
        k(    1) = (   0.0000000   0.0000000   0.0000000), wk =   0.0039062
        k(    2) = (  -0.1250000   0.1250000  -0.1250000), wk =   0.0312500
        k(    3) = (  -0.2500000   0.2500000  -0.2500000), wk =   0.0312500
        k(    4) = (  -0.3750000   0.3750000  -0.3750000), wk =   0.0312500
        k(    5) = (   0.5000000  -0.5000000   0.5000000), wk =   0.0156250
        k(    6) = (   0.0000000   0.2500000   0.0000000), wk =   0.0234375
        k(    7) = (  -0.1250000   0.3750000  -0.1250000), wk =   0.0937500
        k(    8) = (  -0.2500000   0.5000000  -0.2500000), wk =   0.0937500
        k(    9) = (   0.6250000  -0.3750000   0.6250000), wk =   0.0937500
        k(   10) = (   0.5000000  -0.2500000   0.5000000), wk =   0.0937500
        k(   11) = (   0.3750000  -0.1250000   0.3750000), wk =   0.0937500
        k(   12) = (   0.2500000   0.0000000   0.2500000), wk =   0.0468750
        k(   13) = (   0.0000000   0.5000000   0.0000000), wk =   0.0234375
        k(   14) = (  -0.1250000   0.6250000  -0.1250000), wk =   0.0937500
        k(   15) = (   0.7500000  -0.2500000   0.7500000), wk =   0.0937500
        k(   16) = (   0.6250000  -0.1250000   0.6250000), wk =   0.0937500
        k(   17) = (   0.5000000   0.0000000   0.5000000), wk =   0.0468750
        k(   18) = (   0.0000000   0.7500000   0.0000000), wk =   0.0234375
        k(   19) = (   0.8750000  -0.1250000   0.8750000), wk =   0.0937500
        k(   20) = (   0.7500000   0.0000000   0.7500000), wk =   0.0468750
        k(   21) = (   0.0000000  -1.0000000   0.0000000), wk =   0.0117188
        k(   22) = (  -0.2500000   0.5000000   0.0000000), wk =   0.0937500
        k(   23) = (   0.6250000  -0.3750000   0.8750000), wk =   0.1875000
        k(   24) = (   0.5000000  -0.2500000   0.7500000), wk =   0.0937500
        k(   25) = (   0.7500000  -0.2500000   1.0000000), wk =   0.0937500
        k(   26) = (   0.6250000  -0.1250000   0.8750000), wk =   0.1875000
        k(   27) = (   0.5000000   0.0000000   0.7500000), wk =   0.0937500
        k(   28) = (  -0.2500000  -1.0000000   0.0000000), wk =   0.0468750
        k(   29) = (  -0.5000000  -1.0000000   0.0000000), wk =   0.0234375

     Dense  grid:    17453 G-vectors     FFT dimensions: (  40,  40,  40)

     Estimated max dynamical RAM per process >      17.06 MB

     Initial potential from superposition of free atoms

     starting charge       7.9075, renormalised to       8.0000
     Starting wfcs are random

     total cpu time spent up to now is        0.2 secs

     Self-consistent Calculation

     iteration #  1     ecut=    60.00 Ry     beta= 0.70
     Davidson diagonalization with overlap
     ethr =  1.00E-02,  avg # of iterations =  8.4

     Threshold (ethr) on eigenvalues was too large:
     Diagonalizing with lowered threshold

     Davidson diagonalization with overlap
     ethr =  5.82E-04,  avg # of iterations =  3.2

     total cpu time spent up to now is        1.8 secs

     total energy              =     -15.76344001 Ry
     estimated scf accuracy    <       0.05032377 Ry

     iteration #  2     ecut=    60.00 Ry     beta= 0.70
     Davidson diagonalization with overlap
     ethr =  6.29E-04,  avg # of iterations =  1.0

     total cpu time spent up to now is        2.2 secs

     total energy              =     -15.76568743 Ry
     estimated scf accuracy    <       0.00240169 Ry

     iteration #  3     ecut=    60.00 Ry     beta= 0.70
     Davidson diagonalization with overlap
     ethr =  3.00E-05,  avg # of iterations =  3.3

     total cpu time spent up to now is        2.7 secs

     total energy              =     -15.76633938 Ry
     estimated scf accuracy    <       0.00004391 Ry

     iteration #  4     ecut=    60.00 Ry     beta= 0.70
     Davidson diagonalization with overlap
     ethr =  5.49E-07,  avg # of iterations =  4.4

     total cpu time spent up to now is        3.3 secs

     total energy              =     -15.76637688 Ry
     estimated scf accuracy    <       0.00000041 Ry

     iteration #  5     ecut=    60.00 Ry     beta= 0.70
     Davidson diagonalization with overlap
     ethr =  5.18E-09,  avg # of iterations =  5.6

     total cpu time spent up to now is        4.1 secs

     total energy              =     -15.76637801 Ry
     estimated scf accuracy    <       0.00000002 Ry

     iteration #  6     ecut=    60.00 Ry     beta= 0.70
     Davidson diagonalization with overlap
     ethr =  2.08E-10,  avg # of iterations =  3.1

     total cpu time spent up to now is        4.6 secs

     End of self-consistent calculation

          k = 0.0000 0.0000 0.0000 (  2109 PWs)   bands (ev):

    -5.8256   5.9566   5.9566   5.9566

          k =-0.1250 0.1250-0.1250 (  2157 PWs)   bands (ev):

    -5.6261   4.3653   5.6769   5.6769

          k =-0.2500 0.2500-0.2500 (  2172 PWs)   bands (ev):

    -5.0447   2.0779   5.2183   5.2183

          k =-0.3750 0.3750-0.3750 (  2168 PWs)   bands (ev):

    -4.1751   0.1024   4.8981   4.8981

          k = 0.5000-0.5000 0.5000 (  2186 PWs)   bands (ev):

    -3.5606  -0.8896   4.7884   4.7884

          k = 0.0000 0.2500 0.0000 (  2153 PWs)   bands (ev):

    -5.5589   4.5949   5.1770   5.1770

          k =-0.1250 0.3750-0.1250 (  2164 PWs)   bands (ev):

    -5.1011   2.7520   4.6784   4.7365

          k =-0.2500 0.5000-0.2500 (  2162 PWs)   bands (ev):

    -4.3067   0.7402   4.1552   4.4155

          k = 0.6250-0.3750 0.6250 (  2176 PWs)   bands (ev):

    -3.4735  -0.6819   3.7207   4.4374

          k = 0.5000-0.2500 0.5000 (  2172 PWs)   bands (ev):

    -3.7089  -0.3230   3.5473   4.7247

          k = 0.3750-0.1250 0.3750 (  2173 PWs)   bands (ev):

    -4.6051   1.3832   3.7025   5.2022

          k = 0.2500 0.0000 0.2500 (  2153 PWs)   bands (ev):

    -5.2977   3.2810   4.3789   5.6697

          k = 0.0000 0.5000 0.0000 (  2181 PWs)   bands (ev):

    -4.7682   2.4327   4.1224   4.1224

          k =-0.1250 0.6250-0.1250 (  2165 PWs)   bands (ev):

    -4.0752   1.0435   3.3585   3.8115

          k = 0.7500-0.2500 0.7500 (  2182 PWs)   bands (ev):

    -3.1756  -0.3559   2.5131   3.8135

          k = 0.6250-0.1250 0.6250 (  2182 PWs)   bands (ev):

    -2.9802  -0.6037   2.0683   4.1228

          k = 0.5000 0.0000 0.5000 (  2181 PWs)   bands (ev):

    -3.8318   0.5236   2.3095   4.6653

          k = 0.0000 0.7500 0.0000 (  2161 PWs)   bands (ev):

    -3.4858   0.2482   3.4229   3.4229

          k = 0.8750-0.1250 0.8750 (  2179 PWs)   bands (ev):

    -2.6110  -0.8136   2.6208   3.3482

          k = 0.7500 0.0000 0.7500 (  2171 PWs)   bands (ev):

    -2.1917  -1.1959   1.7829   3.5989

          k = 0.0000-1.0000 0.0000 (  2200 PWs)   bands (ev):

    -1.7765  -1.7765   3.1829   3.1829

          k =-0.2500 0.5000 0.0000 (  2170 PWs)   bands (ev):

    -4.5272   1.6897   3.3217   4.5665

          k = 0.6250-0.3750 0.8750 (  2180 PWs)   bands (ev):

    -3.6625   0.1786   2.7178   4.0831

          k = 0.5000-0.2500 0.7500 (  2174 PWs)   bands (ev):

    -3.0329  -0.7344   2.5854   3.8621

          k = 0.7500-0.2500 1.0000 (  2183 PWs)   bands (ev):

    -3.2938   0.0340   2.6898   3.2800

          k = 0.6250-0.1250 0.8750 (  2188 PWs)   bands (ev):

    -2.4456  -0.9095   2.0131   3.0850

          k = 0.5000 0.0000 0.7500 (  2192 PWs)   bands (ev):

    -2.7875  -0.5530   1.8516   3.4492

          k =-0.2500-1.0000 0.0000 (  2174 PWs)   bands (ev):

    -1.7038  -1.7038   2.6398   2.6398

          k =-0.5000-1.0000 0.0000 (  2180 PWs)   bands (ev):

    -1.6242  -1.6242   2.2203   2.2203

     highest occupied level (ev):     5.9566

!    total energy              =     -15.76637802 Ry
     estimated scf accuracy    <          4.3E-10 Ry

     The total energy is the sum of the following terms:
     one-electron contribution =       4.55076974 Ry
     hartree contribution      =       1.12471961 Ry
     xc contribution           =      -4.78895228 Ry
     ewald contribution        =     -16.65291509 Ry

     convergence has been achieved in   6 iterations

     Writing all to output data dir ./SCRATCH/silicon.save/

     init_run     :      0.22s CPU      0.21s WALL (       1 calls)
     electrons    :      4.20s CPU      4.40s WALL (       1 calls)

     Called by init_run:
     wfcinit      :      0.16s CPU      0.14s WALL (       1 calls)
     potinit      :      0.03s CPU      0.04s WALL (       1 calls)
     hinit0       :      0.02s CPU      0.02s WALL (       1 calls)

     Called by electrons:
     c_bands      :      3.66s CPU      3.77s WALL (       7 calls)
     sum_band     :      0.42s CPU      0.46s WALL (       7 calls)
     v_of_rho     :      0.14s CPU      0.17s WALL (       7 calls)
     mix_rho      :      0.02s CPU      0.01s WALL (       7 calls)

     Called by c_bands:
     init_us_2    :      0.12s CPU      0.10s WALL (     435 calls)
     init_us_2:cp :      0.11s CPU      0.10s WALL (     435 calls)
     cegterg      :      3.48s CPU      3.63s WALL (     203 calls)

     Called by *egterg:
     cdiaghg      :      0.03s CPU      0.02s WALL (    1016 calls)
     h_psi        :      3.39s CPU      3.47s WALL (    1074 calls)
     g_psi        :      0.02s CPU      0.02s WALL (     842 calls)

     Called by h_psi:
     h_psi:calbec :      0.17s CPU      0.13s WALL (    1074 calls)
     vloc_psi     :      3.14s CPU      3.24s WALL (    1074 calls)
     add_vuspsi   :      0.08s CPU      0.09s WALL (    1074 calls)

     General routines
     calbec       :      0.16s CPU      0.12s WALL (    1074 calls)
     fft          :      0.03s CPU      0.05s WALL (      70 calls)
     ffts         :      0.00s CPU      0.01s WALL (       7 calls)
     fftw         :      3.28s CPU      3.30s WALL (    7456 calls)


     PWSCF        :      4.44s CPU      4.65s WALL


   This run was terminated on:  11:41:53   9Jun2024            

=------------------------------------------------------------------------------=
   JOB DONE.
=------------------------------------------------------------------------------=
