
     Program PWSCF v.7.2 starts on  9Jun2024 at  9:58:43 

     This program is part of the open-source Quantum ESPRESSO suite
     for quantum simulation of materials; please cite
         "P. Giannozzi et al., J. Phys.:Condens. Matter 21 395502 (2009);
         "P. Giannozzi et al., J. Phys.:Condens. Matter 29 465901 (2017);
         "P. Giannozzi et al., J. Chem. Phys. 152 154105 (2020);
          URL http://www.quantum-espresso.org", 
     in publications or presentations arising from this work. More details at
     http://www.quantum-espresso.org/quote

     Serial version
     9731 MiB available memory on the printing compute node when the environment starts

     Waiting for input...
     Reading input from standard input

     Current dimensions of program PWSCF are:
     Max number of different atomic species (ntypx) = 10
     Max number of k-points (npk) =  40000
     Max angular momentum in pseudopotentials (lmaxx) =  4


     G-vector sticks info
     --------------------
     sticks:   dense  smooth     PW     G-vecs:    dense   smooth      PW
     Sum        1285    1285    379                30923    30923    4957

     Using Slab Decomposition



     bravais-lattice index     =            2
     lattice parameter (alat)  =      10.8966  a.u.
     unit-cell volume          =     323.4510 (a.u.)^3
     number of atoms/cell      =            2
     number of atomic types    =            2
     number of electrons       =        18.00
     number of Kohn-Sham states=            9
     kinetic-energy cutoff     =      80.0000  Ry
     charge density cutoff     =     320.0000  Ry
     scf convergence threshold =      1.0E-08
     mixing beta               =       0.7000
     number of iterations used =            8  plain     mixing
     Exchange-correlation= PBE
                           (   1   4   3   4   0   0   0)

     celldm(1)=  10.896563  celldm(2)=   0.000000  celldm(3)=   0.000000
     celldm(4)=   0.000000  celldm(5)=   0.000000  celldm(6)=   0.000000

     crystal axes: (cart. coord. in units of alat)
               a(1) = (  -0.500000   0.000000   0.500000 )  
               a(2) = (   0.000000   0.500000   0.500000 )  
               a(3) = (  -0.500000   0.500000   0.000000 )  

     reciprocal axes: (cart. coord. in units 2 pi/alat)
               b(1) = ( -1.000000 -1.000000  1.000000 )  
               b(2) = (  1.000000  1.000000  1.000000 )  
               b(3) = ( -1.000000  1.000000 -1.000000 )  


     PseudoPot. # 1 for Ga read from file:
     /home/paolo/project_labqsm/pseudopotentials/Ga_ONCV_PBE-1.2.upf
     MD5 check sum: 9961a622ff199abf6dfec9a0a10b8555
     Pseudo is Norm-conserving, Zval = 13.0
     Generated using ONCVPSP code by D. R. Hamann
     Using radial grid of  602 points,  6 beta functions with: 
                l(1) =   0
                l(2) =   0
                l(3) =   1
                l(4) =   1
                l(5) =   2
                l(6) =   2

     PseudoPot. # 2 for As read from file:
     /home/paolo/project_labqsm/pseudopotentials/As_ONCV_PBE-1.2.upf
     MD5 check sum: a2ff92a4799c87c945fff9e6739df4dd
     Pseudo is Norm-conserving, Zval =  5.0
     Generated using ONCVPSP code by D. R. Hamann
     Using radial grid of  602 points,  6 beta functions with: 
                l(1) =   0
                l(2) =   0
                l(3) =   1
                l(4) =   1
                l(5) =   2
                l(6) =   2

     atomic species   valence    mass     pseudopotential
        Ga            13.00    69.72300     Ga( 1.00)
        As             5.00    74.92200     As( 1.00)

     24 Sym. Ops. (no inversion) found



   Cartesian axes

     site n.     atom                  positions (alat units)
         1           Ga  tau(   1) = (   0.0000000   0.0000000   0.0000000  )
         2           As  tau(   2) = (   0.2500000   0.2500000   0.2500000  )

     number of k points=    29
                       cart. coord. in units 2pi/alat
        k(    1) = (   0.0000000   0.0000000   0.0000000), wk =   0.0039062
        k(    2) = (  -0.1250000   0.1250000  -0.1250000), wk =   0.0312500
        k(    3) = (  -0.2500000   0.2500000  -0.2500000), wk =   0.0312500
        k(    4) = (  -0.3750000   0.3750000  -0.3750000), wk =   0.0312500
        k(    5) = (   0.5000000  -0.5000000   0.5000000), wk =   0.0156250
        k(    6) = (   0.0000000   0.2500000   0.0000000), wk =   0.0234375
        k(    7) = (  -0.1250000   0.3750000  -0.1250000), wk =   0.0937500
        k(    8) = (  -0.2500000   0.5000000  -0.2500000), wk =   0.0937500
        k(    9) = (   0.6250000  -0.3750000   0.6250000), wk =   0.0937500
        k(   10) = (   0.5000000  -0.2500000   0.5000000), wk =   0.0937500
        k(   11) = (   0.3750000  -0.1250000   0.3750000), wk =   0.0937500
        k(   12) = (   0.2500000   0.0000000   0.2500000), wk =   0.0468750
        k(   13) = (   0.0000000   0.5000000   0.0000000), wk =   0.0234375
        k(   14) = (  -0.1250000   0.6250000  -0.1250000), wk =   0.0937500
        k(   15) = (   0.7500000  -0.2500000   0.7500000), wk =   0.0937500
        k(   16) = (   0.6250000  -0.1250000   0.6250000), wk =   0.0937500
        k(   17) = (   0.5000000   0.0000000   0.5000000), wk =   0.0468750
        k(   18) = (   0.0000000   0.7500000   0.0000000), wk =   0.0234375
        k(   19) = (   0.8750000  -0.1250000   0.8750000), wk =   0.0937500
        k(   20) = (   0.7500000   0.0000000   0.7500000), wk =   0.0468750
        k(   21) = (   0.0000000  -1.0000000   0.0000000), wk =   0.0117188
        k(   22) = (  -0.2500000   0.5000000   0.0000000), wk =   0.0937500
        k(   23) = (   0.6250000  -0.3750000   0.8750000), wk =   0.1875000
        k(   24) = (   0.5000000  -0.2500000   0.7500000), wk =   0.0937500
        k(   25) = (   0.7500000  -0.2500000   1.0000000), wk =   0.0937500
        k(   26) = (   0.6250000  -0.1250000   0.8750000), wk =   0.1875000
        k(   27) = (   0.5000000   0.0000000   0.7500000), wk =   0.0937500
        k(   28) = (  -0.2500000  -1.0000000   0.0000000), wk =   0.0468750
        k(   29) = (  -0.5000000  -1.0000000   0.0000000), wk =   0.0234375

     Dense  grid:    30923 G-vectors     FFT dimensions: (  45,  45,  45)

     Estimated max dynamical RAM per process >      43.34 MB

     Initial potential from superposition of free atoms

     starting charge      17.8922, renormalised to      18.0000
     Starting wfcs are random

     total cpu time spent up to now is        0.8 secs

     Self-consistent Calculation

     iteration #  1     ecut=    80.00 Ry     beta= 0.70
     Davidson diagonalization with overlap
     ethr =  1.00E-02,  avg # of iterations = 15.6

     Threshold (ethr) on eigenvalues was too large:
     Diagonalizing with lowered threshold

     Davidson diagonalization with overlap
     ethr =  4.15E-04,  avg # of iterations =  2.2

     total cpu time spent up to now is       10.2 secs

     total energy              =    -144.00600636 Ry
     estimated scf accuracy    <       0.07069412 Ry

     iteration #  2     ecut=    80.00 Ry     beta= 0.70
     Davidson diagonalization with overlap
     ethr =  3.93E-04,  avg # of iterations =  3.0

     total cpu time spent up to now is       12.4 secs

     total energy              =    -144.02665427 Ry
     estimated scf accuracy    <       0.01369112 Ry

     iteration #  3     ecut=    80.00 Ry     beta= 0.70
     Davidson diagonalization with overlap
     ethr =  7.61E-05,  avg # of iterations =  2.0

     total cpu time spent up to now is       14.1 secs

     total energy              =    -144.02838453 Ry
     estimated scf accuracy    <       0.00062560 Ry

     iteration #  4     ecut=    80.00 Ry     beta= 0.70
     Davidson diagonalization with overlap
     ethr =  3.48E-06,  avg # of iterations =  5.2

     total cpu time spent up to now is       16.4 secs

     total energy              =    -144.02859411 Ry
     estimated scf accuracy    <       0.00032352 Ry

     iteration #  5     ecut=    80.00 Ry     beta= 0.70
     Davidson diagonalization with overlap
     ethr =  1.80E-06,  avg # of iterations =  2.5

     total cpu time spent up to now is       18.2 secs

     total energy              =    -144.02865226 Ry
     estimated scf accuracy    <       0.00000443 Ry

     iteration #  6     ecut=    80.00 Ry     beta= 0.70
     Davidson diagonalization with overlap
     c_bands:  1 eigenvalues not converged
     ethr =  2.46E-08,  avg # of iterations =  4.5

     total cpu time spent up to now is       20.6 secs

     total energy              =    -144.02865665 Ry
     estimated scf accuracy    <       0.00000006 Ry

     iteration #  7     ecut=    80.00 Ry     beta= 0.70
     Davidson diagonalization with overlap
     ethr =  3.45E-10,  avg # of iterations =  3.4

     total cpu time spent up to now is       22.9 secs

     total energy              =    -144.02865671 Ry
     estimated scf accuracy    <       0.00000001 Ry

     iteration #  8     ecut=    80.00 Ry     beta= 0.70
     Davidson diagonalization with overlap
     ethr =  6.30E-11,  avg # of iterations =  4.7

     total cpu time spent up to now is       25.4 secs

     total energy              =    -144.02865670 Ry
     estimated scf accuracy    <       0.00000005 Ry

     iteration #  9     ecut=    80.00 Ry     beta= 0.70
     Davidson diagonalization with overlap
     ethr =  6.30E-11,  avg # of iterations =  4.9

     total cpu time spent up to now is       27.8 secs

     End of self-consistent calculation

          k = 0.0000 0.0000 0.0000 (  3839 PWs)   bands (ev):

    -8.2305  -8.2305  -8.2305  -8.1657  -8.1657  -5.8279   6.4815   6.4815
     6.4815

          k =-0.1250 0.1250-0.1250 (  3882 PWs)   bands (ev):

    -8.2406  -8.2278  -8.2278  -8.1658  -8.1658  -5.6612   4.4767   6.2671
     6.2671

          k =-0.2500 0.2500-0.2500 (  3885 PWs)   bands (ev):

    -8.2631  -8.2216  -8.2216  -8.1653  -8.1653  -5.1969   2.4512   5.8601
     5.8601

          k =-0.3750 0.3750-0.3750 (  3879 PWs)   bands (ev):

    -8.2837  -8.2165  -8.2165  -8.1636  -8.1636  -4.5837   0.8384   5.5431
     5.5431

          k = 0.5000-0.5000 0.5000 (  3852 PWs)   bands (ev):

    -8.2919  -8.2148  -8.2148  -8.1623  -8.1623  -4.2434   0.1562   5.4287
     5.4287

          k = 0.0000 0.2500 0.0000 (  3879 PWs)   bands (ev):

    -8.2466  -8.2251  -8.2251  -8.1679  -8.1642  -5.6055   4.4039   5.8851
     5.8851

          k =-0.1250 0.3750-0.1250 (  3900 PWs)   bands (ev):

    -8.2647  -8.2198  -8.2186  -8.1697  -8.1628  -5.2383   2.8909   5.3959
     5.4329

          k =-0.2500 0.5000-0.2500 (  3911 PWs)   bands (ev):

    -8.2836  -8.2154  -8.2131  -8.1690  -8.1615  -4.6584   1.2798   4.8255
     5.1596

          k = 0.6250-0.3750 0.6250 (  3905 PWs)   bands (ev):

    -8.2941  -8.2132  -8.2110  -8.1660  -8.1618  -4.1742   0.2865   4.4205
     5.1479

          k = 0.5000-0.2500 0.5000 (  3911 PWs)   bands (ev):

    -8.2911  -8.2134  -8.2128  -8.1646  -8.1638  -4.2945   0.5151   4.2991
     5.3931

          k = 0.3750-0.1250 0.3750 (  3901 PWs)   bands (ev):

    -8.2757  -8.2179  -8.2162  -8.1673  -8.1637  -4.8670   1.7816   4.5312
     5.8177

          k = 0.2500 0.0000 0.2500 (  3885 PWs)   bands (ev):

    -8.2552  -8.2245  -8.2217  -8.1673  -8.1645  -5.3941   3.3553   5.2376
     6.2233

          k = 0.0000 0.5000 0.0000 (  3928 PWs)   bands (ev):

    -8.2802  -8.2114  -8.2114  -8.1746  -8.1605  -4.9800   2.4262   4.9297
     4.9297

          k =-0.1250 0.6250-0.1250 (  3916 PWs)   bands (ev):

    -8.2953  -8.2062  -8.2047  -8.1766  -8.1589  -4.4867   1.3439   4.2516
     4.6209

          k = 0.7500-0.2500 0.7500 (  3905 PWs)   bands (ev):

    -8.3026  -8.2061  -8.2021  -8.1740  -8.1598  -3.9765   0.4399   3.4818
     4.6024

          k = 0.6250-0.1250 0.6250 (  3916 PWs)   bands (ev):

    -8.3004  -8.2086  -8.2041  -8.1693  -8.1635  -3.8986   0.3300   3.0981
     4.8763

          k = 0.5000 0.0000 0.5000 (  3919 PWs)   bands (ev):

    -8.2902  -8.2118  -8.2104  -8.1669  -8.1652  -4.3428   1.0116   3.3735
     5.3589

          k = 0.0000 0.7500 0.0000 (  3940 PWs)   bands (ev):

    -8.3089  -8.1971  -8.1971  -8.1822  -8.1568  -4.1139   0.7435   4.2483
     4.2483

          k = 0.8750-0.1250 0.8750 (  3925 PWs)   bands (ev):

    -8.3144  -8.1963  -8.1941  -8.1817  -8.1568  -3.7168   0.1731   3.6106
     4.1675

          k = 0.7500 0.0000 0.7500 (  3907 PWs)   bands (ev):

    -8.3099  -8.2019  -8.1966  -8.1764  -8.1600  -3.6171   0.1034   2.9229
     4.3986

          k = 0.0000-1.0000 0.0000 (  3892 PWs)   bands (ev):

    -8.3198  -8.1910  -8.1910  -8.1853  -8.1551  -3.5807  -0.0655   4.0085
     4.0085

          k =-0.2500 0.5000 0.0000 (  3905 PWs)   bands (ev):

    -8.2814  -8.2141  -8.2119  -8.1717  -8.1614  -4.8055   1.8961   4.2747
     5.2836

          k = 0.6250-0.3750 0.8750 (  3911 PWs)   bands (ev):

    -8.2946  -8.2111  -8.2064  -8.1708  -8.1616  -4.2414   0.7924   3.6494
     4.8854

          k = 0.5000-0.2500 0.7500 (  3906 PWs)   bands (ev):

    -8.2996  -8.2105  -8.2044  -8.1689  -8.1626  -3.9350   0.2632   3.4756
     4.7012

          k = 0.7500-0.2500 1.0000 (  3924 PWs)   bands (ev):

    -8.3054  -8.2032  -8.1986  -8.1778  -8.1586  -4.0163   0.6237   3.6734
     4.2036

          k = 0.6250-0.1250 0.8750 (  3910 PWs)   bands (ev):

    -8.3075  -8.2052  -8.1966  -8.1748  -8.1609  -3.6750   0.1918   3.0998
     4.0403

          k = 0.5000 0.0000 0.7500 (  3910 PWs)   bands (ev):

    -8.3031  -8.2083  -8.1995  -8.1717  -8.1630  -3.7975   0.3451   2.9675
     4.3556

          k =-0.2500-1.0000 0.0000 (  3928 PWs)   bands (ev):

    -8.3147  -8.1981  -8.1933  -8.1800  -8.1579  -3.5584   0.0117   3.5805
     3.6780

          k =-0.5000-1.0000 0.0000 (  3884 PWs)   bands (ev):

    -8.3086  -8.2057  -8.1943  -8.1742  -8.1620  -3.5357   0.0979   3.2192
     3.4102

     highest occupied level (ev):     6.4815

!    total energy              =    -144.02865671 Ry
     estimated scf accuracy    <          5.0E-11 Ry

     The total energy is the sum of the following terms:
     one-electron contribution =     -85.56444272 Ry
     hartree contribution      =      53.93129940 Ry
     xc contribution           =     -21.20024765 Ry
     ewald contribution        =     -91.19526574 Ry

     convergence has been achieved in   9 iterations

     Writing all to output data dir ./SCRATCH/gallium_arsenide.save/

     init_run     :      0.69s CPU      0.74s WALL (       1 calls)
     electrons    :     26.69s CPU     27.00s WALL (       1 calls)

     Called by init_run:
     wfcinit      :      0.59s CPU      0.61s WALL (       1 calls)
     potinit      :      0.03s CPU      0.05s WALL (       1 calls)
     hinit0       :      0.05s CPU      0.05s WALL (       1 calls)

     Called by electrons:
     c_bands      :     24.12s CPU     24.34s WALL (      10 calls)
     sum_band     :      2.28s CPU      2.32s WALL (      10 calls)
     v_of_rho     :      0.28s CPU      0.33s WALL (      10 calls)
     mix_rho      :      0.03s CPU      0.04s WALL (      10 calls)

     Called by c_bands:
     init_us_2    :      0.33s CPU      0.55s WALL (     609 calls)
     init_us_2:cp :      0.33s CPU      0.55s WALL (     609 calls)
     cegterg      :     23.08s CPU     23.20s WALL (     290 calls)

     Called by *egterg:
     cdiaghg      :      0.19s CPU      0.11s WALL (    1654 calls)
     h_psi        :     20.50s CPU     20.61s WALL (    1712 calls)
     g_psi        :      0.09s CPU      0.09s WALL (    1393 calls)

     Called by h_psi:
     h_psi:calbec :      2.02s CPU      1.72s WALL (    1712 calls)
     vloc_psi     :     17.38s CPU     17.62s WALL (    1712 calls)
     add_vuspsi   :      1.09s CPU      1.19s WALL (    1712 calls)

     General routines
     calbec       :      2.02s CPU      1.72s WALL (    1712 calls)
     fft          :      0.08s CPU      0.11s WALL (     100 calls)
     ffts         :      0.03s CPU      0.01s WALL (      10 calls)
     fftw         :     17.70s CPU     17.95s WALL (   24954 calls)


     PWSCF        :     27.41s CPU     27.79s WALL


   This run was terminated on:   9:59:11   9Jun2024            

=------------------------------------------------------------------------------=
   JOB DONE.
=------------------------------------------------------------------------------=
