
     Program PWSCF v.7.2 starts on  8Jun2024 at 10:22:32 

     This program is part of the open-source Quantum ESPRESSO suite
     for quantum simulation of materials; please cite
         "P. Giannozzi et al., J. Phys.:Condens. Matter 21 395502 (2009);
         "P. Giannozzi et al., J. Phys.:Condens. Matter 29 465901 (2017);
         "P. Giannozzi et al., J. Chem. Phys. 152 154105 (2020);
          URL http://www.quantum-espresso.org", 
     in publications or presentations arising from this work. More details at
     http://www.quantum-espresso.org/quote

     Serial version
     9570 MiB available memory on the printing compute node when the environment starts

     Waiting for input...
     Reading input from standard input

     Current dimensions of program PWSCF are:
     Max number of different atomic species (ntypx) = 10
     Max number of k-points (npk) =  40000
     Max angular momentum in pseudopotentials (lmaxx) =  4


     G-vector sticks info
     --------------------
     sticks:   dense  smooth     PW     G-vecs:    dense   smooth      PW
     Sum         859     859    253                16865    16865    2741

     Using Slab Decomposition



     bravais-lattice index     =            2
     lattice parameter (alat)  =      10.2423  a.u.
     unit-cell volume          =     268.6175 (a.u.)^3
     number of atoms/cell      =            2
     number of atomic types    =            2
     number of electrons       =        26.00
     number of Kohn-Sham states=           13
     kinetic-energy cutoff     =      60.0000  Ry
     charge density cutoff     =     240.0000  Ry
     scf convergence threshold =      1.0E-08
     mixing beta               =       0.7000
     number of iterations used =            8  plain     mixing
     Exchange-correlation= PBE
                           (   1   4   3   4   0   0   0)

     celldm(1)=  10.242315  celldm(2)=   0.000000  celldm(3)=   0.000000
     celldm(4)=   0.000000  celldm(5)=   0.000000  celldm(6)=   0.000000

     crystal axes: (cart. coord. in units of alat)
               a(1) = (  -0.500000   0.000000   0.500000 )  
               a(2) = (   0.000000   0.500000   0.500000 )  
               a(3) = (  -0.500000   0.500000   0.000000 )  

     reciprocal axes: (cart. coord. in units 2 pi/alat)
               b(1) = ( -1.000000 -1.000000  1.000000 )  
               b(2) = (  1.000000  1.000000  1.000000 )  
               b(3) = ( -1.000000  1.000000 -1.000000 )  


     PseudoPot. # 1 for Zn read from file:
     /home/paolo/project_labqsm/pseudopotentials/Zn_ONCV_PBE-1.2.upf
     MD5 check sum: 732f41c0cd6489a4b50a33b4ec99a2d3
     Pseudo is Norm-conserving, Zval = 20.0
     Generated using ONCVPSP code by D. R. Hamann
     Using radial grid of  602 points,  6 beta functions with: 
                l(1) =   0
                l(2) =   0
                l(3) =   1
                l(4) =   1
                l(5) =   2
                l(6) =   2

     PseudoPot. # 2 for S  read from file:
     /home/paolo/project_labqsm/pseudopotentials/S_ONCV_PBE-1.2.upf
     MD5 check sum: f9d020296ee6110346977bfd66d424f6
     Pseudo is Norm-conserving, Zval =  6.0
     Generated using ONCVPSP code by D. R. Hamann
     Using radial grid of  602 points,  4 beta functions with: 
                l(1) =   0
                l(2) =   0
                l(3) =   1
                l(4) =   1

     atomic species   valence    mass     pseudopotential
        Zn            20.00    65.38000     Zn( 1.00)
        S              6.00    32.06000     S ( 1.00)

     24 Sym. Ops. (no inversion) found



   Cartesian axes

     site n.     atom                  positions (alat units)
         1           Zn  tau(   1) = (   0.0000000   0.0000000   0.0000000  )
         2           S   tau(   2) = (   0.2500000   0.2500000   0.2500000  )

     number of k points=    29
                       cart. coord. in units 2pi/alat
        k(    1) = (   0.0000000   0.0000000   0.0000000), wk =   0.0039062
        k(    2) = (  -0.1250000   0.1250000  -0.1250000), wk =   0.0312500
        k(    3) = (  -0.2500000   0.2500000  -0.2500000), wk =   0.0312500
        k(    4) = (  -0.3750000   0.3750000  -0.3750000), wk =   0.0312500
        k(    5) = (   0.5000000  -0.5000000   0.5000000), wk =   0.0156250
        k(    6) = (   0.0000000   0.2500000   0.0000000), wk =   0.0234375
        k(    7) = (  -0.1250000   0.3750000  -0.1250000), wk =   0.0937500
        k(    8) = (  -0.2500000   0.5000000  -0.2500000), wk =   0.0937500
        k(    9) = (   0.6250000  -0.3750000   0.6250000), wk =   0.0937500
        k(   10) = (   0.5000000  -0.2500000   0.5000000), wk =   0.0937500
        k(   11) = (   0.3750000  -0.1250000   0.3750000), wk =   0.0937500
        k(   12) = (   0.2500000   0.0000000   0.2500000), wk =   0.0468750
        k(   13) = (   0.0000000   0.5000000   0.0000000), wk =   0.0234375
        k(   14) = (  -0.1250000   0.6250000  -0.1250000), wk =   0.0937500
        k(   15) = (   0.7500000  -0.2500000   0.7500000), wk =   0.0937500
        k(   16) = (   0.6250000  -0.1250000   0.6250000), wk =   0.0937500
        k(   17) = (   0.5000000   0.0000000   0.5000000), wk =   0.0468750
        k(   18) = (   0.0000000   0.7500000   0.0000000), wk =   0.0234375
        k(   19) = (   0.8750000  -0.1250000   0.8750000), wk =   0.0937500
        k(   20) = (   0.7500000   0.0000000   0.7500000), wk =   0.0468750
        k(   21) = (   0.0000000  -1.0000000   0.0000000), wk =   0.0117188
        k(   22) = (  -0.2500000   0.5000000   0.0000000), wk =   0.0937500
        k(   23) = (   0.6250000  -0.3750000   0.8750000), wk =   0.1875000
        k(   24) = (   0.5000000  -0.2500000   0.7500000), wk =   0.0937500
        k(   25) = (   0.7500000  -0.2500000   1.0000000), wk =   0.0937500
        k(   26) = (   0.6250000  -0.1250000   0.8750000), wk =   0.1875000
        k(   27) = (   0.5000000   0.0000000   0.7500000), wk =   0.0937500
        k(   28) = (  -0.2500000  -1.0000000   0.0000000), wk =   0.0468750
        k(   29) = (  -0.5000000  -1.0000000   0.0000000), wk =   0.0234375

     Dense  grid:    16865 G-vectors     FFT dimensions: (  36,  36,  36)

     Estimated max dynamical RAM per process >      28.31 MB

     Initial potential from superposition of free atoms

     starting charge      25.9670, renormalised to      26.0000
     Starting wfcs are random

     total cpu time spent up to now is        0.4 secs

     Self-consistent Calculation

     iteration #  1     ecut=    60.00 Ry     beta= 0.70
     Davidson diagonalization with overlap
     ethr =  1.00E-02,  avg # of iterations = 13.0

     Threshold (ethr) on eigenvalues was too large:
     Diagonalizing with lowered threshold

     Davidson diagonalization with overlap
     ethr =  9.02E-04,  avg # of iterations =  2.2

     total cpu time spent up to now is        5.0 secs

     total energy              =    -420.84694410 Ry
     estimated scf accuracy    <       0.12045602 Ry

     iteration #  2     ecut=    60.00 Ry     beta= 0.70
     Davidson diagonalization with overlap
     ethr =  4.63E-04,  avg # of iterations =  2.1

     total cpu time spent up to now is        6.1 secs

     total energy              =    -420.88914473 Ry
     estimated scf accuracy    <       0.06131876 Ry

     iteration #  3     ecut=    60.00 Ry     beta= 0.70
     Davidson diagonalization with overlap
     ethr =  2.36E-04,  avg # of iterations =  2.0

     total cpu time spent up to now is        7.2 secs

     total energy              =    -420.89973483 Ry
     estimated scf accuracy    <       0.00079093 Ry

     iteration #  4     ecut=    60.00 Ry     beta= 0.70
     Davidson diagonalization with overlap
     ethr =  3.04E-06,  avg # of iterations =  3.1

     total cpu time spent up to now is        8.6 secs

     total energy              =    -420.90000028 Ry
     estimated scf accuracy    <       0.00031686 Ry

     iteration #  5     ecut=    60.00 Ry     beta= 0.70
     Davidson diagonalization with overlap
     ethr =  1.22E-06,  avg # of iterations =  2.0

     total cpu time spent up to now is        9.7 secs

     total energy              =    -420.90009034 Ry
     estimated scf accuracy    <       0.00002263 Ry

     iteration #  6     ecut=    60.00 Ry     beta= 0.70
     Davidson diagonalization with overlap
     ethr =  8.71E-08,  avg # of iterations =  2.1

     total cpu time spent up to now is       11.0 secs

     total energy              =    -420.90009763 Ry
     estimated scf accuracy    <       0.00000932 Ry

     iteration #  7     ecut=    60.00 Ry     beta= 0.70
     Davidson diagonalization with overlap
     ethr =  3.58E-08,  avg # of iterations =  2.0

     total cpu time spent up to now is       12.1 secs

     total energy              =    -420.90009896 Ry
     estimated scf accuracy    <       0.00000017 Ry

     iteration #  8     ecut=    60.00 Ry     beta= 0.70
     Davidson diagonalization with overlap
     ethr =  6.56E-10,  avg # of iterations =  3.2

     total cpu time spent up to now is       13.5 secs

     total energy              =    -420.90009909 Ry
     estimated scf accuracy    <       0.00000010 Ry

     iteration #  9     ecut=    60.00 Ry     beta= 0.70
     Davidson diagonalization with overlap
     ethr =  3.86E-10,  avg # of iterations =  2.0

     total cpu time spent up to now is       14.4 secs

     total energy              =    -420.90009909 Ry
     estimated scf accuracy    <       0.00000002 Ry

     iteration # 10     ecut=    60.00 Ry     beta= 0.70
     Davidson diagonalization with overlap
     ethr =  6.61E-11,  avg # of iterations =  2.1

     total cpu time spent up to now is       15.7 secs

     End of self-consistent calculation

          k = 0.0000 0.0000 0.0000 (  2085 PWs)   bands (ev):

  -117.5268 -71.6826 -71.6826 -71.6826  -5.6962   1.0732   1.0732   1.0732
     1.5589   1.5589   7.3810   7.3810   7.3810

          k =-0.1250 0.1250-0.1250 (  2094 PWs)   bands (ev):

  -117.5268 -71.6826 -71.6826 -71.6826  -5.5812   1.0760   1.0937   1.0937
     1.5570   1.5570   6.2733   7.2364   7.2364

          k =-0.2500 0.2500-0.2500 (  2100 PWs)   bands (ev):

  -117.5268 -71.6827 -71.6826 -71.6826  -5.2814   1.1254   1.1392   1.1392
     1.5600   1.5600   4.5715   6.9209   6.9209

          k =-0.3750 0.3750-0.3750 (  2102 PWs)   bands (ev):

  -117.5268 -71.6827 -71.6826 -71.6826  -4.9414   1.1751   1.1751   1.3432
     1.5768   1.5768   3.0631   6.6391   6.6391

          k = 0.5000-0.5000 0.5000 (  2120 PWs)   bands (ev):

  -117.5268 -71.6827 -71.6826 -71.6826  -4.7855   1.1859   1.1859   1.5881
     1.5881   1.7586   2.1531   6.5292   6.5292

          k = 0.0000 0.2500 0.0000 (  2097 PWs)   bands (ev):

  -117.5268 -71.6826 -71.6826 -71.6826  -5.5429   1.0553   1.1119   1.1119
     1.5424   1.5691   6.3151   6.9806   6.9806

          k =-0.1250 0.3750-0.1250 (  2102 PWs)   bands (ev):

  -117.5268 -71.6826 -71.6826 -71.6826  -5.3039   1.0660   1.1597   1.1609
     1.5355   1.5787   5.0407   6.6080   6.6803

          k =-0.2500 0.5000-0.2500 (  2116 PWs)   bands (ev):

  -117.5268 -71.6827 -71.6826 -71.6826  -4.9723   1.1450   1.2021   1.2636
     1.5610   1.5899   3.5700   6.2658   6.3409

          k = 0.6250-0.3750 0.6250 (  2104 PWs)   bands (ev):

  -117.5268 -71.6827 -71.6826 -71.6826  -4.7461   1.1845   1.2171   1.5096
     1.5916   1.7208   2.4463   5.9169   6.3038

          k = 0.5000-0.2500 0.5000 (  2104 PWs)   bands (ev):

  -117.5268 -71.6827 -71.6826 -71.6826  -4.7984   1.1890   1.2054   1.4656
     1.5680   1.6301   2.7565   5.7957   6.5108

          k = 0.3750-0.1250 0.3750 (  2102 PWs)   bands (ev):

  -117.5268 -71.6827 -71.6826 -71.6826  -5.0859   1.1625   1.1681   1.1955
     1.5440   1.5883   4.0351   5.9837   6.8669

          k = 0.2500 0.0000 0.2500 (  2111 PWs)   bands (ev):

  -117.5268 -71.6826 -71.6826 -71.6826  -5.4040   1.0837   1.1188   1.1365
     1.5427   1.5696   5.4050   6.5425   7.1816

          k = 0.0000 0.5000 0.0000 (  2085 PWs)   bands (ev):

  -117.5268 -71.6826 -71.6826 -71.6826  -5.1425   1.0304   1.2177   1.2177
     1.5216   1.5955   4.8248   6.1671   6.1671

          k =-0.1250 0.6250-0.1250 (  2099 PWs)   bands (ev):

  -117.5268 -71.6827 -71.6826 -71.6826  -4.8714   1.0724   1.2734   1.2873
     1.5581   1.6060   3.8947   5.6464   5.8532

          k = 0.7500-0.2500 0.7500 (  2113 PWs)   bands (ev):

  -117.5268 -71.6827 -71.6826 -71.6826  -4.6440   1.1582   1.2948   1.4076
     1.6009   1.7239   2.9473   5.0195   5.8127

          k = 0.6250-0.1250 0.6250 (  2116 PWs)   bands (ev):

  -117.5268 -71.6827 -71.6827 -71.6826  -4.6179   1.1892   1.2775   1.5091
     1.5711   1.7833   2.7412   4.6575   6.0641

          k = 0.5000 0.0000 0.5000 (  2099 PWs)   bands (ev):

  -117.5268 -71.6827 -71.6826 -71.6826  -4.8112   1.1954   1.2272   1.3555
     1.5453   1.6199   3.4601   4.9099   6.4928

          k = 0.0000 0.7500 0.0000 (  2104 PWs)   bands (ev):

  -117.5268 -71.6827 -71.6826 -71.6826  -4.6880   1.0415   1.3458   1.3458
     1.5974   1.6206   3.5284   5.4685   5.4685

          k = 0.8750-0.1250 0.8750 (  2113 PWs)   bands (ev):

  -117.5268 -71.6827 -71.6826 -71.6826  -4.5303   1.0911   1.3764   1.3957
     1.6186   1.7519   3.0180   4.9266   5.3708

          k = 0.7500 0.0000 0.7500 (  2129 PWs)   bands (ev):

  -117.5268 -71.6827 -71.6827 -71.6826  -4.5025   1.1578   1.3492   1.4585
     1.5923   1.8986   2.8088   4.3181   5.6047

          k = 0.0000-1.0000 0.0000 (  2100 PWs)   bands (ev):

  -117.5268 -71.6827 -71.6826 -71.6826  -4.4793   1.0550   1.4093   1.4093
     1.6309   1.7750   2.8595   5.1966   5.1966

          k =-0.2500 0.5000 0.0000 (  2105 PWs)   bands (ev):

  -117.5268 -71.6827 -71.6826 -71.6826  -5.0465   1.1007   1.2036   1.2310
     1.5377   1.5952   4.2637   5.7063   6.4955

          k = 0.6250-0.3750 0.8750 (  2102 PWs)   bands (ev):

  -117.5268 -71.6827 -71.6826 -71.6826  -4.7626   1.1846   1.2341   1.3776
     1.5766   1.6325   3.2291   5.1883   6.1334

          k = 0.5000-0.2500 0.7500 (  2100 PWs)   bands (ev):

  -117.5268 -71.6827 -71.6826 -71.6826  -4.6356   1.1999   1.2549   1.5088
     1.5718   1.8254   2.5548   5.0701   5.9464

          k = 0.7500-0.2500 1.0000 (  2101 PWs)   bands (ev):

  -117.5268 -71.6827 -71.6826 -71.6826  -4.6523   1.1240   1.3036   1.3774
     1.6038   1.6621   3.3333   5.0591   5.5019

          k = 0.6250-0.1250 0.8750 (  2121 PWs)   bands (ev):

  -117.5268 -71.6827 -71.6827 -71.6826  -4.5238   1.1847   1.3230   1.4657
     1.5739   1.8671   2.8552   4.5437   5.3467

          k = 0.5000 0.0000 0.7500 (  2125 PWs)   bands (ev):

  -117.5268 -71.6827 -71.6827 -71.6826  -4.5726   1.2059   1.2862   1.4983
     1.5543   1.7952   2.9461   4.4364   5.6606

          k =-0.2500-1.0000 0.0000 (  2120 PWs)   bands (ev):

  -117.5268 -71.6827 -71.6827 -71.6826  -4.4764   1.1286   1.3749   1.4279
     1.6036   1.8634   2.8511   4.9287   4.9410

          k =-0.5000-1.0000 0.0000 (  2148 PWs)   bands (ev):

  -117.5268 -71.6827 -71.6827 -71.6826  -4.4735   1.2043   1.3484   1.5030
     1.5222   1.9493   2.8407   4.6818   4.7037

     highest occupied level (ev):     7.3810

!    total energy              =    -420.90009909 Ry
     estimated scf accuracy    <          3.7E-09 Ry

     The total energy is the sum of the following terms:
     one-electron contribution =    -338.97464421 Ry
     hartree contribution      =     173.03384720 Ry
     xc contribution           =     -40.99746553 Ry
     ewald contribution        =    -213.96183656 Ry

     convergence has been achieved in  10 iterations

     Writing all to output data dir ./SCRATCH/zns.save/

     init_run     :      0.39s CPU      0.43s WALL (       1 calls)
     electrons    :     14.89s CPU     15.22s WALL (       1 calls)

     Called by init_run:
     wfcinit      :      0.33s CPU      0.36s WALL (       1 calls)
     potinit      :      0.03s CPU      0.03s WALL (       1 calls)
     hinit0       :      0.03s CPU      0.03s WALL (       1 calls)

     Called by electrons:
     c_bands      :     13.38s CPU     13.62s WALL (      11 calls)
     sum_band     :      1.38s CPU      1.45s WALL (      11 calls)
     v_of_rho     :      0.11s CPU      0.15s WALL (      11 calls)
     mix_rho      :      0.05s CPU      0.02s WALL (      11 calls)

     Called by c_bands:
     init_us_2    :      0.31s CPU      0.28s WALL (     667 calls)
     init_us_2:cp :      0.31s CPU      0.28s WALL (     667 calls)
     cegterg      :     12.88s CPU     13.13s WALL (     319 calls)

     Called by *egterg:
     cdiaghg      :      0.17s CPU      0.17s WALL (    1327 calls)
     h_psi        :     10.30s CPU     10.56s WALL (    1385 calls)
     g_psi        :      0.08s CPU      0.06s WALL (    1037 calls)

     Called by h_psi:
     h_psi:calbec :      0.88s CPU      0.82s WALL (    1385 calls)
     vloc_psi     :      8.88s CPU      9.08s WALL (    1385 calls)
     add_vuspsi   :      0.52s CPU      0.60s WALL (    1385 calls)

     General routines
     calbec       :      0.86s CPU      0.82s WALL (    1385 calls)
     fft          :      0.03s CPU      0.05s WALL (     110 calls)
     ffts         :      0.00s CPU      0.01s WALL (      11 calls)
     fftw         :      9.00s CPU      9.25s WALL (   33381 calls)


     PWSCF        :     15.30s CPU     15.69s WALL


   This run was terminated on:  10:22:48   8Jun2024            

=------------------------------------------------------------------------------=
   JOB DONE.
=------------------------------------------------------------------------------=
