
     Program PWSCF v.7.2 starts on  8Jun2024 at 10:32:27 

     This program is part of the open-source Quantum ESPRESSO suite
     for quantum simulation of materials; please cite
         "P. Giannozzi et al., J. Phys.:Condens. Matter 21 395502 (2009);
         "P. Giannozzi et al., J. Phys.:Condens. Matter 29 465901 (2017);
         "P. Giannozzi et al., J. Chem. Phys. 152 154105 (2020);
          URL http://www.quantum-espresso.org", 
     in publications or presentations arising from this work. More details at
     http://www.quantum-espresso.org/quote

     Serial version
     9356 MiB available memory on the printing compute node when the environment starts

     Waiting for input...
     Reading input from standard input

     Current dimensions of program PWSCF are:
     Max number of different atomic species (ntypx) = 10
     Max number of k-points (npk) =  40000
     Max angular momentum in pseudopotentials (lmaxx) =  4


     G-vector sticks info
     --------------------
     sticks:   dense  smooth     PW     G-vecs:    dense   smooth      PW
     Sum        1507    1507    433                38517    38517    5985

     Using Slab Decomposition



     bravais-lattice index     =            2
     lattice parameter (alat)  =      10.4472  a.u.
     unit-cell volume          =     285.0591 (a.u.)^3
     number of atoms/cell      =            2
     number of atomic types    =            2
     number of electrons       =        26.00
     number of Kohn-Sham states=           13
     kinetic-energy cutoff     =     100.0000  Ry
     charge density cutoff     =     400.0000  Ry
     scf convergence threshold =      1.0E-08
     mixing beta               =       0.7000
     number of iterations used =            8  plain     mixing
     Exchange-correlation= PBE
                           (   1   4   3   4   0   0   0)

     celldm(1)=  10.447161  celldm(2)=   0.000000  celldm(3)=   0.000000
     celldm(4)=   0.000000  celldm(5)=   0.000000  celldm(6)=   0.000000

     crystal axes: (cart. coord. in units of alat)
               a(1) = (  -0.500000   0.000000   0.500000 )  
               a(2) = (   0.000000   0.500000   0.500000 )  
               a(3) = (  -0.500000   0.500000   0.000000 )  

     reciprocal axes: (cart. coord. in units 2 pi/alat)
               b(1) = ( -1.000000 -1.000000  1.000000 )  
               b(2) = (  1.000000  1.000000  1.000000 )  
               b(3) = ( -1.000000  1.000000 -1.000000 )  


     PseudoPot. # 1 for Zn read from file:
     /home/paolo/project_labqsm/pseudopotentials/Zn_ONCV_PBE-1.2.upf
     MD5 check sum: 732f41c0cd6489a4b50a33b4ec99a2d3
     Pseudo is Norm-conserving, Zval = 20.0
     Generated using ONCVPSP code by D. R. Hamann
     Using radial grid of  602 points,  6 beta functions with: 
                l(1) =   0
                l(2) =   0
                l(3) =   1
                l(4) =   1
                l(5) =   2
                l(6) =   2

     PseudoPot. # 2 for S  read from file:
     /home/paolo/project_labqsm/pseudopotentials/S_ONCV_PBE-1.2.upf
     MD5 check sum: f9d020296ee6110346977bfd66d424f6
     Pseudo is Norm-conserving, Zval =  6.0
     Generated using ONCVPSP code by D. R. Hamann
     Using radial grid of  602 points,  4 beta functions with: 
                l(1) =   0
                l(2) =   0
                l(3) =   1
                l(4) =   1

     atomic species   valence    mass     pseudopotential
        Zn            20.00    65.38000     Zn( 1.00)
        S              6.00    32.06000     S ( 1.00)

     24 Sym. Ops. (no inversion) found



   Cartesian axes

     site n.     atom                  positions (alat units)
         1           Zn  tau(   1) = (   0.0000000   0.0000000   0.0000000  )
         2           S   tau(   2) = (   0.2500000   0.2500000   0.2500000  )

     number of k points=    29
                       cart. coord. in units 2pi/alat
        k(    1) = (   0.0000000   0.0000000   0.0000000), wk =   0.0039062
        k(    2) = (  -0.1250000   0.1250000  -0.1250000), wk =   0.0312500
        k(    3) = (  -0.2500000   0.2500000  -0.2500000), wk =   0.0312500
        k(    4) = (  -0.3750000   0.3750000  -0.3750000), wk =   0.0312500
        k(    5) = (   0.5000000  -0.5000000   0.5000000), wk =   0.0156250
        k(    6) = (   0.0000000   0.2500000   0.0000000), wk =   0.0234375
        k(    7) = (  -0.1250000   0.3750000  -0.1250000), wk =   0.0937500
        k(    8) = (  -0.2500000   0.5000000  -0.2500000), wk =   0.0937500
        k(    9) = (   0.6250000  -0.3750000   0.6250000), wk =   0.0937500
        k(   10) = (   0.5000000  -0.2500000   0.5000000), wk =   0.0937500
        k(   11) = (   0.3750000  -0.1250000   0.3750000), wk =   0.0937500
        k(   12) = (   0.2500000   0.0000000   0.2500000), wk =   0.0468750
        k(   13) = (   0.0000000   0.5000000   0.0000000), wk =   0.0234375
        k(   14) = (  -0.1250000   0.6250000  -0.1250000), wk =   0.0937500
        k(   15) = (   0.7500000  -0.2500000   0.7500000), wk =   0.0937500
        k(   16) = (   0.6250000  -0.1250000   0.6250000), wk =   0.0937500
        k(   17) = (   0.5000000   0.0000000   0.5000000), wk =   0.0468750
        k(   18) = (   0.0000000   0.7500000   0.0000000), wk =   0.0234375
        k(   19) = (   0.8750000  -0.1250000   0.8750000), wk =   0.0937500
        k(   20) = (   0.7500000   0.0000000   0.7500000), wk =   0.0468750
        k(   21) = (   0.0000000  -1.0000000   0.0000000), wk =   0.0117188
        k(   22) = (  -0.2500000   0.5000000   0.0000000), wk =   0.0937500
        k(   23) = (   0.6250000  -0.3750000   0.8750000), wk =   0.1875000
        k(   24) = (   0.5000000  -0.2500000   0.7500000), wk =   0.0937500
        k(   25) = (   0.7500000  -0.2500000   1.0000000), wk =   0.0937500
        k(   26) = (   0.6250000  -0.1250000   0.8750000), wk =   0.1875000
        k(   27) = (   0.5000000   0.0000000   0.7500000), wk =   0.0937500
        k(   28) = (  -0.2500000  -1.0000000   0.0000000), wk =   0.0468750
        k(   29) = (  -0.5000000  -1.0000000   0.0000000), wk =   0.0234375

     Dense  grid:    38517 G-vectors     FFT dimensions: (  48,  48,  48)

     Estimated max dynamical RAM per process >      62.41 MB

     Initial potential from superposition of free atoms

     starting charge      25.9670, renormalised to      26.0000
     Starting wfcs are random

     total cpu time spent up to now is        1.1 secs

     Self-consistent Calculation

     iteration #  1     ecut=   100.00 Ry     beta= 0.70
     Davidson diagonalization with overlap
     ethr =  1.00E-02,  avg # of iterations = 13.1

     Threshold (ethr) on eigenvalues was too large:
     Diagonalizing with lowered threshold

     Davidson diagonalization with overlap
     ethr =  7.67E-04,  avg # of iterations =  2.0

     total cpu time spent up to now is       13.7 secs

     total energy              =    -420.84891466 Ry
     estimated scf accuracy    <       0.12142344 Ry

     iteration #  2     ecut=   100.00 Ry     beta= 0.70
     Davidson diagonalization with overlap
     ethr =  4.67E-04,  avg # of iterations =  2.1

     total cpu time spent up to now is       16.7 secs

     total energy              =    -420.89109075 Ry
     estimated scf accuracy    <       0.06473420 Ry

     iteration #  3     ecut=   100.00 Ry     beta= 0.70
     Davidson diagonalization with overlap
     ethr =  2.49E-04,  avg # of iterations =  2.0

     total cpu time spent up to now is       19.7 secs

     total energy              =    -420.90228554 Ry
     estimated scf accuracy    <       0.00083047 Ry

     iteration #  4     ecut=   100.00 Ry     beta= 0.70
     Davidson diagonalization with overlap
     ethr =  3.19E-06,  avg # of iterations =  3.1

     total cpu time spent up to now is       23.4 secs

     total energy              =    -420.90255695 Ry
     estimated scf accuracy    <       0.00039697 Ry

     iteration #  5     ecut=   100.00 Ry     beta= 0.70
     Davidson diagonalization with overlap
     ethr =  1.53E-06,  avg # of iterations =  2.0

     total cpu time spent up to now is       26.7 secs

     total energy              =    -420.90267543 Ry
     estimated scf accuracy    <       0.00005383 Ry

     iteration #  6     ecut=   100.00 Ry     beta= 0.70
     Davidson diagonalization with overlap
     ethr =  2.07E-07,  avg # of iterations =  2.0

     total cpu time spent up to now is       29.9 secs

     total energy              =    -420.90269250 Ry
     estimated scf accuracy    <       0.00000859 Ry

     iteration #  7     ecut=   100.00 Ry     beta= 0.70
     Davidson diagonalization with overlap
     ethr =  3.30E-08,  avg # of iterations =  2.0

     total cpu time spent up to now is       32.9 secs

     total energy              =    -420.90269336 Ry
     estimated scf accuracy    <       0.00000035 Ry

     iteration #  8     ecut=   100.00 Ry     beta= 0.70
     Davidson diagonalization with overlap
     ethr =  1.34E-09,  avg # of iterations =  3.2

     total cpu time spent up to now is       36.6 secs

     total energy              =    -420.90269356 Ry
     estimated scf accuracy    <       0.00000016 Ry

     iteration #  9     ecut=   100.00 Ry     beta= 0.70
     Davidson diagonalization with overlap
     ethr =  6.25E-10,  avg # of iterations =  2.0

     total cpu time spent up to now is       39.5 secs

     total energy              =    -420.90269357 Ry
     estimated scf accuracy    <       0.00000001 Ry

     iteration # 10     ecut=   100.00 Ry     beta= 0.70
     Davidson diagonalization with overlap
     ethr =  4.77E-11,  avg # of iterations =  3.0

     total cpu time spent up to now is       43.1 secs

     End of self-consistent calculation

          k = 0.0000 0.0000 0.0000 (  4909 PWs)   bands (ev):

  -118.2139 -72.3772 -72.3772 -72.3772  -6.1413   0.4454   0.4454   0.4454
     0.8622   0.8622   6.5431   6.5431   6.5431

          k =-0.1250 0.1250-0.1250 (  4816 PWs)   bands (ev):

  -118.2139 -72.3772 -72.3772 -72.3772  -6.0381   0.4522   0.4635   0.4635
     0.8610   0.8610   5.4694   6.4135   6.4135

          k =-0.2500 0.2500-0.2500 (  4813 PWs)   bands (ev):

  -118.2139 -72.3772 -72.3772 -72.3772  -5.7705   0.5029   0.5029   0.5107
     0.8639   0.8639   3.8663   6.1287   6.1287

          k =-0.3750 0.3750-0.3750 (  4810 PWs)   bands (ev):

  -118.2139 -72.3773 -72.3772 -72.3772  -5.4706   0.5342   0.5342   0.7230
     0.8779   0.8779   2.4643   5.8730   5.8730

          k = 0.5000-0.5000 0.5000 (  4802 PWs)   bands (ev):

  -118.2139 -72.3773 -72.3772 -72.3772  -5.3344   0.5442   0.5442   0.8877
     0.8877   1.0427   1.6929   5.7734   5.7734

          k = 0.0000 0.2500 0.0000 (  4825 PWs)   bands (ev):

  -118.2139 -72.3772 -72.3772 -72.3772  -6.0037   0.4350   0.4794   0.4794
     0.8491   0.8713   5.4845   6.1846   6.1846

          k =-0.1250 0.3750-0.1250 (  4820 PWs)   bands (ev):

  -118.2139 -72.3772 -72.3772 -72.3772  -5.7902   0.4527   0.5213   0.5249
     0.8434   0.8797   4.2903   5.8476   5.9053

          k =-0.2500 0.5000-0.2500 (  4825 PWs)   bands (ev):

  -118.2139 -72.3773 -72.3772 -72.3772  -5.4970   0.5174   0.5583   0.6376
     0.8669   0.8897   2.9281   5.5228   5.6044

          k = 0.6250-0.3750 0.6250 (  4812 PWs)   bands (ev):

  -118.2139 -72.3773 -72.3772 -72.3772  -5.2992   0.5452   0.5711   0.8340
     0.8901   1.0192   1.9298   5.2014   5.5697

          k = 0.5000-0.2500 0.5000 (  4811 PWs)   bands (ev):

  -118.2139 -72.3773 -72.3772 -72.3772  -5.3448   0.5486   0.5606   0.8153
     0.8704   0.9360   2.1910   5.0930   5.7569

          k = 0.3750-0.1250 0.3750 (  4805 PWs)   bands (ev):

  -118.2139 -72.3772 -72.3772 -72.3772  -5.5971   0.5277   0.5302   0.5754
     0.8504   0.8882   3.3565   5.2735   6.0788

          k = 0.2500 0.0000 0.2500 (  4806 PWs)   bands (ev):

  -118.2139 -72.3772 -72.3772 -72.3772  -5.8795   0.4663   0.4853   0.5020
     0.8499   0.8721   4.6347   5.7905   6.3632

          k = 0.0000 0.5000 0.0000 (  4833 PWs)   bands (ev):

  -118.2139 -72.3772 -72.3772 -72.3772  -5.6466   0.4290   0.5715   0.5715
     0.8323   0.8931   4.0575   5.4474   5.4474

          k =-0.1250 0.6250-0.1250 (  4801 PWs)   bands (ev):

  -118.2139 -72.3773 -72.3772 -72.3772  -5.4073   0.4732   0.6200   0.6362
     0.8671   0.9028   3.1996   4.9667   5.1616

          k = 0.7500-0.2500 0.7500 (  4816 PWs)   bands (ev):

  -118.2139 -72.3773 -72.3772 -72.3772  -5.2086   0.5365   0.6386   0.7460
     0.8984   1.0190   2.3613   4.3802   5.1243

          k = 0.6250-0.1250 0.6250 (  4812 PWs)   bands (ev):

  -118.2139 -72.3773 -72.3772 -72.3772  -5.1861   0.5556   0.6233   0.8261
     0.8732   1.0758   2.1952   4.0450   5.3522

          k = 0.5000 0.0000 0.5000 (  4788 PWs)   bands (ev):

  -118.2139 -72.3773 -72.3772 -72.3772  -5.3551   0.5567   0.5790   0.7235
     0.8510   0.9209   2.8137   4.2903   5.7406

          k = 0.0000 0.7500 0.0000 (  4812 PWs)   bands (ev):

  -118.2139 -72.3773 -72.3772 -72.3772  -5.2462   0.4558   0.6824   0.6824
     0.9046   0.9149   2.8484   4.8118   4.8118

          k = 0.8750-0.1250 0.8750 (  4817 PWs)   bands (ev):

  -118.2139 -72.3773 -72.3772 -72.3772  -5.1088   0.4967   0.7079   0.7259
     0.9136   1.0399   2.3972   4.3171   4.7227

          k = 0.7500 0.0000 0.7500 (  4830 PWs)   bands (ev):

  -118.2139 -72.3773 -72.3772 -72.3772  -5.0849   0.5407   0.6849   0.7802
     0.8918   1.1590   2.2477   3.7529   4.9350

          k = 0.0000-1.0000 0.0000 (  4800 PWs)   bands (ev):

  -118.2139 -72.3773 -72.3772 -72.3772  -5.0645   0.4711   0.7356   0.7356
     0.9240   1.0563   2.2504   4.5648   4.5648

          k =-0.2500 0.5000 0.0000 (  4810 PWs)   bands (ev):

  -118.2139 -72.3772 -72.3772 -72.3772  -5.5619   0.4892   0.5611   0.5900
     0.8464   0.8941   3.5508   5.0273   5.7409

          k = 0.6250-0.3750 0.8750 (  4807 PWs)   bands (ev):

  -118.2139 -72.3773 -72.3772 -72.3772  -5.3125   0.5516   0.5885   0.7308
     0.8794   0.9352   2.6101   4.5379   5.4147

          k = 0.5000-0.2500 0.7500 (  4794 PWs)   bands (ev):

  -118.2139 -72.3773 -72.3772 -72.3772  -5.2018   0.5614   0.6051   0.8270
     0.8744   1.0995   2.0415   4.4185   5.2470

          k = 0.7500-0.2500 1.0000 (  4822 PWs)   bands (ev):

  -118.2139 -72.3773 -72.3772 -72.3772  -5.2154   0.5183   0.6467   0.7139
     0.9014   0.9632   2.6829   4.4346   4.8419

          k = 0.6250-0.1250 0.8750 (  4814 PWs)   bands (ev):

  -118.2139 -72.3773 -72.3772 -72.3772  -5.1034   0.5597   0.6628   0.7888
     0.8773   1.1363   2.2861   3.9550   4.7016

          k = 0.5000 0.0000 0.7500 (  4817 PWs)   bands (ev):

  -118.2139 -72.3773 -72.3772 -72.3772  -5.1461   0.5718   0.6328   0.8168
     0.8612   1.0857   2.3632   3.8551   4.9863

          k =-0.2500-1.0000 0.0000 (  4820 PWs)   bands (ev):

  -118.2139 -72.3773 -72.3772 -72.3772  -5.0620   0.5243   0.7052   0.7550
     0.9019   1.1299   2.2630   4.3191   4.3319

          k =-0.5000-1.0000 0.0000 (  4788 PWs)   bands (ev):

  -118.2139 -72.3773 -72.3772 -72.3772  -5.0595   0.5755   0.6821   0.8265
     0.8327   1.1998   2.2787   4.0868   4.1180

     highest occupied level (ev):     6.5431

!    total energy              =    -420.90269357 Ry
     estimated scf accuracy    <          5.9E-09 Ry

     The total energy is the sum of the following terms:
     one-electron contribution =    -346.12518688 Ry
     hartree contribution      =     175.94275865 Ry
     xc contribution           =     -40.95375896 Ry
     ewald contribution        =    -209.76650638 Ry

     convergence has been achieved in  10 iterations

     Writing all to output data dir ./SCRATCH/zns.save/

     init_run     :      1.06s CPU      1.12s WALL (       1 calls)
     electrons    :     41.64s CPU     41.92s WALL (       1 calls)

     Called by init_run:
     wfcinit      :      0.97s CPU      0.98s WALL (       1 calls)
     potinit      :      0.05s CPU      0.07s WALL (       1 calls)
     hinit0       :      0.03s CPU      0.04s WALL (       1 calls)

     Called by electrons:
     c_bands      :     37.09s CPU     37.34s WALL (      11 calls)
     sum_band     :      4.14s CPU      4.14s WALL (      11 calls)
     v_of_rho     :      0.41s CPU      0.44s WALL (      11 calls)
     mix_rho      :      0.05s CPU      0.05s WALL (      11 calls)

     Called by c_bands:
     init_us_2    :      0.58s CPU      0.65s WALL (     667 calls)
     init_us_2:cp :      0.58s CPU      0.65s WALL (     667 calls)
     cegterg      :     36.03s CPU     36.26s WALL (     319 calls)

     Called by *egterg:
     cdiaghg      :      0.14s CPU      0.18s WALL (    1352 calls)
     h_psi        :     30.84s CPU     30.58s WALL (    1410 calls)
     g_psi        :      0.09s CPU      0.14s WALL (    1062 calls)

     Called by h_psi:
     h_psi:calbec :      2.08s CPU      1.99s WALL (    1410 calls)
     vloc_psi     :     27.28s CPU     27.08s WALL (    1410 calls)
     add_vuspsi   :      1.38s CPU      1.41s WALL (    1410 calls)

     General routines
     calbec       :      2.08s CPU      1.98s WALL (    1410 calls)
     fft          :      0.14s CPU      0.15s WALL (     110 calls)
     ffts         :      0.00s CPU      0.02s WALL (      11 calls)
     fftw         :     28.42s CPU     28.06s WALL (   33785 calls)


     PWSCF        :     42.73s CPU     43.10s WALL


   This run was terminated on:  10:33:10   8Jun2024            

=------------------------------------------------------------------------------=
   JOB DONE.
=------------------------------------------------------------------------------=
