
     Program PWSCF v.7.2 starts on  8Jun2024 at 10:28:10 

     This program is part of the open-source Quantum ESPRESSO suite
     for quantum simulation of materials; please cite
         "P. Giannozzi et al., J. Phys.:Condens. Matter 21 395502 (2009);
         "P. Giannozzi et al., J. Phys.:Condens. Matter 29 465901 (2017);
         "P. Giannozzi et al., J. Chem. Phys. 152 154105 (2020);
          URL http://www.quantum-espresso.org", 
     in publications or presentations arising from this work. More details at
     http://www.quantum-espresso.org/quote

     Serial version
     9290 MiB available memory on the printing compute node when the environment starts

     Waiting for input...
     Reading input from standard input

     Current dimensions of program PWSCF are:
     Max number of different atomic species (ntypx) = 10
     Max number of k-points (npk) =  40000
     Max angular momentum in pseudopotentials (lmaxx) =  4


     G-vector sticks info
     --------------------
     sticks:   dense  smooth     PW     G-vecs:    dense   smooth      PW
     Sum        1429    1429    421                36085    36085    5769

     Using Slab Decomposition



     bravais-lattice index     =            2
     lattice parameter (alat)  =      10.2423  a.u.
     unit-cell volume          =     268.6175 (a.u.)^3
     number of atoms/cell      =            2
     number of atomic types    =            2
     number of electrons       =        26.00
     number of Kohn-Sham states=           13
     kinetic-energy cutoff     =     100.0000  Ry
     charge density cutoff     =     400.0000  Ry
     scf convergence threshold =      1.0E-08
     mixing beta               =       0.7000
     number of iterations used =            8  plain     mixing
     Exchange-correlation= PBE
                           (   1   4   3   4   0   0   0)

     celldm(1)=  10.242315  celldm(2)=   0.000000  celldm(3)=   0.000000
     celldm(4)=   0.000000  celldm(5)=   0.000000  celldm(6)=   0.000000

     crystal axes: (cart. coord. in units of alat)
               a(1) = (  -0.500000   0.000000   0.500000 )  
               a(2) = (   0.000000   0.500000   0.500000 )  
               a(3) = (  -0.500000   0.500000   0.000000 )  

     reciprocal axes: (cart. coord. in units 2 pi/alat)
               b(1) = ( -1.000000 -1.000000  1.000000 )  
               b(2) = (  1.000000  1.000000  1.000000 )  
               b(3) = ( -1.000000  1.000000 -1.000000 )  


     PseudoPot. # 1 for Zn read from file:
     /home/paolo/project_labqsm/pseudopotentials/Zn_ONCV_PBE-1.2.upf
     MD5 check sum: 732f41c0cd6489a4b50a33b4ec99a2d3
     Pseudo is Norm-conserving, Zval = 20.0
     Generated using ONCVPSP code by D. R. Hamann
     Using radial grid of  602 points,  6 beta functions with: 
                l(1) =   0
                l(2) =   0
                l(3) =   1
                l(4) =   1
                l(5) =   2
                l(6) =   2

     PseudoPot. # 2 for S  read from file:
     /home/paolo/project_labqsm/pseudopotentials/S_ONCV_PBE-1.2.upf
     MD5 check sum: f9d020296ee6110346977bfd66d424f6
     Pseudo is Norm-conserving, Zval =  6.0
     Generated using ONCVPSP code by D. R. Hamann
     Using radial grid of  602 points,  4 beta functions with: 
                l(1) =   0
                l(2) =   0
                l(3) =   1
                l(4) =   1

     atomic species   valence    mass     pseudopotential
        Zn            20.00    65.38000     Zn( 1.00)
        S              6.00    32.06000     S ( 1.00)

     24 Sym. Ops. (no inversion) found



   Cartesian axes

     site n.     atom                  positions (alat units)
         1           Zn  tau(   1) = (   0.0000000   0.0000000   0.0000000  )
         2           S   tau(   2) = (   0.2500000   0.2500000   0.2500000  )

     number of k points=    29
                       cart. coord. in units 2pi/alat
        k(    1) = (   0.0000000   0.0000000   0.0000000), wk =   0.0039062
        k(    2) = (  -0.1250000   0.1250000  -0.1250000), wk =   0.0312500
        k(    3) = (  -0.2500000   0.2500000  -0.2500000), wk =   0.0312500
        k(    4) = (  -0.3750000   0.3750000  -0.3750000), wk =   0.0312500
        k(    5) = (   0.5000000  -0.5000000   0.5000000), wk =   0.0156250
        k(    6) = (   0.0000000   0.2500000   0.0000000), wk =   0.0234375
        k(    7) = (  -0.1250000   0.3750000  -0.1250000), wk =   0.0937500
        k(    8) = (  -0.2500000   0.5000000  -0.2500000), wk =   0.0937500
        k(    9) = (   0.6250000  -0.3750000   0.6250000), wk =   0.0937500
        k(   10) = (   0.5000000  -0.2500000   0.5000000), wk =   0.0937500
        k(   11) = (   0.3750000  -0.1250000   0.3750000), wk =   0.0937500
        k(   12) = (   0.2500000   0.0000000   0.2500000), wk =   0.0468750
        k(   13) = (   0.0000000   0.5000000   0.0000000), wk =   0.0234375
        k(   14) = (  -0.1250000   0.6250000  -0.1250000), wk =   0.0937500
        k(   15) = (   0.7500000  -0.2500000   0.7500000), wk =   0.0937500
        k(   16) = (   0.6250000  -0.1250000   0.6250000), wk =   0.0937500
        k(   17) = (   0.5000000   0.0000000   0.5000000), wk =   0.0468750
        k(   18) = (   0.0000000   0.7500000   0.0000000), wk =   0.0234375
        k(   19) = (   0.8750000  -0.1250000   0.8750000), wk =   0.0937500
        k(   20) = (   0.7500000   0.0000000   0.7500000), wk =   0.0468750
        k(   21) = (   0.0000000  -1.0000000   0.0000000), wk =   0.0117188
        k(   22) = (  -0.2500000   0.5000000   0.0000000), wk =   0.0937500
        k(   23) = (   0.6250000  -0.3750000   0.8750000), wk =   0.1875000
        k(   24) = (   0.5000000  -0.2500000   0.7500000), wk =   0.0937500
        k(   25) = (   0.7500000  -0.2500000   1.0000000), wk =   0.0937500
        k(   26) = (   0.6250000  -0.1250000   0.8750000), wk =   0.1875000
        k(   27) = (   0.5000000   0.0000000   0.7500000), wk =   0.0937500
        k(   28) = (  -0.2500000  -1.0000000   0.0000000), wk =   0.0468750
        k(   29) = (  -0.5000000  -1.0000000   0.0000000), wk =   0.0234375

     Dense  grid:    36085 G-vectors     FFT dimensions: (  48,  48,  48)

     Estimated max dynamical RAM per process >      59.34 MB

     Initial potential from superposition of free atoms

     starting charge      25.9670, renormalised to      26.0000
     Starting wfcs are random

     total cpu time spent up to now is        1.1 secs

     Self-consistent Calculation

     iteration #  1     ecut=   100.00 Ry     beta= 0.70
     Davidson diagonalization with overlap
     ethr =  1.00E-02,  avg # of iterations = 12.7

     total cpu time spent up to now is       10.9 secs

     total energy              =    -420.39140783 Ry
     estimated scf accuracy    <       0.33681965 Ry

     iteration #  2     ecut=   100.00 Ry     beta= 0.70
     Davidson diagonalization with overlap
     ethr =  1.30E-03,  avg # of iterations =  3.9

     total cpu time spent up to now is       14.6 secs

     total energy              =    -420.86114832 Ry
     estimated scf accuracy    <       0.47015040 Ry

     iteration #  3     ecut=   100.00 Ry     beta= 0.70
     Davidson diagonalization with overlap
     ethr =  1.30E-03,  avg # of iterations =  2.0

     total cpu time spent up to now is       17.5 secs

     total energy              =    -420.89191823 Ry
     estimated scf accuracy    <       0.04116882 Ry

     iteration #  4     ecut=   100.00 Ry     beta= 0.70
     Davidson diagonalization with overlap
     ethr =  1.58E-04,  avg # of iterations =  2.0

     total cpu time spent up to now is       20.5 secs

     total energy              =    -420.90357062 Ry
     estimated scf accuracy    <       0.00033301 Ry

     iteration #  5     ecut=   100.00 Ry     beta= 0.70
     Davidson diagonalization with overlap
     ethr =  1.28E-06,  avg # of iterations =  3.8

     total cpu time spent up to now is       24.2 secs

     total energy              =    -420.90379663 Ry
     estimated scf accuracy    <       0.00013798 Ry

     iteration #  6     ecut=   100.00 Ry     beta= 0.70
     Davidson diagonalization with overlap
     ethr =  5.31E-07,  avg # of iterations =  2.0

     total cpu time spent up to now is       26.8 secs

     total energy              =    -420.90376713 Ry
     estimated scf accuracy    <       0.00005472 Ry

     iteration #  7     ecut=   100.00 Ry     beta= 0.70
     Davidson diagonalization with overlap
     ethr =  2.10E-07,  avg # of iterations =  3.0

     total cpu time spent up to now is       30.4 secs

     total energy              =    -420.90379101 Ry
     estimated scf accuracy    <       0.00002944 Ry

     iteration #  8     ecut=   100.00 Ry     beta= 0.70
     Davidson diagonalization with overlap
     ethr =  1.13E-07,  avg # of iterations =  2.0

     total cpu time spent up to now is       33.1 secs

     total energy              =    -420.90379224 Ry
     estimated scf accuracy    <       0.00000296 Ry

     iteration #  9     ecut=   100.00 Ry     beta= 0.70
     Davidson diagonalization with overlap
     ethr =  1.14E-08,  avg # of iterations =  2.2

     total cpu time spent up to now is       36.1 secs

     total energy              =    -420.90379338 Ry
     estimated scf accuracy    <       0.00000016 Ry

     iteration # 10     ecut=   100.00 Ry     beta= 0.70
     Davidson diagonalization with overlap
     ethr =  6.29E-10,  avg # of iterations =  2.0

     total cpu time spent up to now is       39.1 secs

     End of self-consistent calculation

          k = 0.0000 0.0000 0.0000 (  4573 PWs)   bands (ev):

  -117.4900 -71.6569 -71.6569 -71.6569  -5.6951   1.0821   1.0821   1.0821
     1.5678   1.5678   7.3808   7.3808   7.3808

          k =-0.1250 0.1250-0.1250 (  4552 PWs)   bands (ev):

  -117.4900 -71.6569 -71.6569 -71.6569  -5.5802   1.0841   1.1027   1.1027
     1.5663   1.5663   6.2735   7.2363   7.2363

          k =-0.2500 0.2500-0.2500 (  4543 PWs)   bands (ev):

  -117.4900 -71.6570 -71.6569 -71.6569  -5.2802   1.1330   1.1478   1.1478
     1.5695   1.5695   4.5726   6.9209   6.9209

          k =-0.3750 0.3750-0.3750 (  4546 PWs)   bands (ev):

  -117.4900 -71.6570 -71.6569 -71.6569  -4.9402   1.1835   1.1835   1.3506
     1.5860   1.5860   3.0655   6.6391   6.6391

          k = 0.5000-0.5000 0.5000 (  4512 PWs)   bands (ev):

  -117.4900 -71.6570 -71.6569 -71.6569  -4.7842   1.1948   1.1948   1.5976
     1.5976   1.7690   2.1538   6.5295   6.5295

          k = 0.0000 0.2500 0.0000 (  4557 PWs)   bands (ev):

  -117.4900 -71.6569 -71.6569 -71.6569  -5.5418   1.0636   1.1205   1.1205
     1.5519   1.5785   6.3156   6.9803   6.9803

          k =-0.1250 0.3750-0.1250 (  4551 PWs)   bands (ev):

  -117.4900 -71.6569 -71.6569 -71.6569  -5.3027   1.0740   1.1683   1.1696
     1.5446   1.5884   5.0418   6.6081   6.6805

          k =-0.2500 0.5000-0.2500 (  4556 PWs)   bands (ev):

  -117.4900 -71.6570 -71.6569 -71.6569  -4.9710   1.1535   1.2108   1.2720
     1.5703   1.6001   3.5722   6.2662   6.3411

          k = 0.6250-0.3750 0.6250 (  4522 PWs)   bands (ev):

  -117.4900 -71.6570 -71.6569 -71.6569  -4.7448   1.1929   1.2257   1.5180
     1.6005   1.7296   2.4480   5.9172   6.3040

          k = 0.5000-0.2500 0.5000 (  4536 PWs)   bands (ev):

  -117.4900 -71.6570 -71.6569 -71.6569  -4.7971   1.1975   1.2140   1.4734
     1.5769   1.6390   2.7586   5.7960   6.5110

          k = 0.3750-0.1250 0.3750 (  4551 PWs)   bands (ev):

  -117.4900 -71.6570 -71.6569 -71.6569  -5.0847   1.1705   1.1767   1.2036
     1.5532   1.5977   4.0368   5.9839   6.8669

          k = 0.2500 0.0000 0.2500 (  4549 PWs)   bands (ev):

  -117.4900 -71.6569 -71.6569 -71.6569  -5.4029   1.0918   1.1280   1.1452
     1.5529   1.5793   5.4060   6.5426   7.1819

          k = 0.0000 0.5000 0.0000 (  4552 PWs)   bands (ev):

  -117.4900 -71.6570 -71.6569 -71.6569  -5.1413   1.0376   1.2259   1.2259
     1.5302   1.6043   4.8260   6.1671   6.1671

          k =-0.1250 0.6250-0.1250 (  4546 PWs)   bands (ev):

  -117.4900 -71.6570 -71.6569 -71.6569  -4.8702   1.0795   1.2821   1.2956
     1.5669   1.6157   3.8965   5.6468   5.8535

          k = 0.7500-0.2500 0.7500 (  4528 PWs)   bands (ev):

  -117.4900 -71.6570 -71.6570 -71.6569  -4.6426   1.1661   1.3040   1.4164
     1.6103   1.7326   2.9493   5.0201   5.8131

          k = 0.6250-0.1250 0.6250 (  4531 PWs)   bands (ev):

  -117.4900 -71.6570 -71.6570 -71.6569  -4.6165   1.1977   1.2866   1.5186
     1.5801   1.7918   2.7427   4.6583   6.0645

          k = 0.5000 0.0000 0.5000 (  4544 PWs)   bands (ev):

  -117.4900 -71.6570 -71.6570 -71.6569  -4.8099   1.2038   1.2358   1.3629
     1.5536   1.6291   3.4619   4.9104   6.4929

          k = 0.0000 0.7500 0.0000 (  4544 PWs)   bands (ev):

  -117.4900 -71.6570 -71.6569 -71.6569  -4.6866   1.0482   1.3551   1.3551
     1.6057   1.6301   3.5307   5.4691   5.4691

          k = 0.8750-0.1250 0.8750 (  4529 PWs)   bands (ev):

  -117.4900 -71.6570 -71.6570 -71.6569  -4.5289   1.0986   1.3853   1.4049
     1.6283   1.7602   3.0207   4.9272   5.3712

          k = 0.7500 0.0000 0.7500 (  4526 PWs)   bands (ev):

  -117.4900 -71.6570 -71.6570 -71.6569  -4.5010   1.1662   1.3584   1.4683
     1.6021   1.9080   2.8104   4.3190   5.6052

          k = 0.0000-1.0000 0.0000 (  4488 PWs)   bands (ev):

  -117.4900 -71.6570 -71.6569 -71.6569  -4.4778   1.0619   1.4182   1.4182
     1.6408   1.7822   2.8624   5.1970   5.1970

          k =-0.2500 0.5000 0.0000 (  4544 PWs)   bands (ev):

  -117.4900 -71.6570 -71.6569 -71.6569  -5.0453   1.1082   1.2123   1.2395
     1.5468   1.6050   4.2653   5.7067   6.4957

          k = 0.6250-0.3750 0.8750 (  4538 PWs)   bands (ev):

  -117.4900 -71.6570 -71.6569 -71.6569  -4.7613   1.1925   1.2427   1.3855
     1.5857   1.6413   3.2312   5.1887   6.1337

          k = 0.5000-0.2500 0.7500 (  4508 PWs)   bands (ev):

  -117.4900 -71.6570 -71.6570 -71.6569  -4.6342   1.2077   1.2633   1.5176
     1.5804   1.8340   2.5560   5.0705   5.9466

          k = 0.7500-0.2500 1.0000 (  4546 PWs)   bands (ev):

  -117.4900 -71.6570 -71.6570 -71.6569  -4.6510   1.1311   1.3123   1.3860
     1.6132   1.6705   3.3354   5.0596   5.5022

          k = 0.6250-0.1250 0.8750 (  4529 PWs)   bands (ev):

  -117.4900 -71.6570 -71.6570 -71.6569  -4.5223   1.1929   1.3320   1.4750
     1.5834   1.8759   2.8569   4.5444   5.3472

          k = 0.5000 0.0000 0.7500 (  4524 PWs)   bands (ev):

  -117.4900 -71.6570 -71.6570 -71.6569  -4.5712   1.2145   1.2953   1.5076
     1.5636   1.8041   2.9480   4.4373   5.6611

          k =-0.2500-1.0000 0.0000 (  4538 PWs)   bands (ev):

  -117.4900 -71.6570 -71.6570 -71.6570  -4.4750   1.1363   1.3840   1.4371
     1.6137   1.8718   2.8534   4.9290   4.9417

          k =-0.5000-1.0000 0.0000 (  4540 PWs)   bands (ev):

  -117.4900 -71.6570 -71.6570 -71.6570  -4.4721   1.2137   1.3583   1.5121
     1.5329   1.9593   2.8421   4.6821   4.7052

     highest occupied level (ev):     7.3808

!    total energy              =    -420.90379341 Ry
     estimated scf accuracy    <          2.0E-09 Ry

     The total energy is the sum of the following terms:
     one-electron contribution =    -339.00611043 Ry
     hartree contribution      =     173.06355596 Ry
     xc contribution           =     -40.99940243 Ry
     ewald contribution        =    -213.96183651 Ry

     convergence has been achieved in  10 iterations

     Writing all to output data dir ./SCRATCH/zns.save/

     init_run     :      1.00s CPU      1.10s WALL (       1 calls)
     electrons    :     37.69s CPU     37.95s WALL (       1 calls)

     Called by init_run:
     wfcinit      :      0.89s CPU      0.96s WALL (       1 calls)
     potinit      :      0.06s CPU      0.07s WALL (       1 calls)
     hinit0       :      0.05s CPU      0.04s WALL (       1 calls)

     Called by electrons:
     c_bands      :     33.50s CPU     33.69s WALL (      10 calls)
     sum_band     :      3.75s CPU      3.79s WALL (      10 calls)
     v_of_rho     :      0.42s CPU      0.45s WALL (      11 calls)
     mix_rho      :      0.05s CPU      0.05s WALL (      10 calls)

     Called by c_bands:
     init_us_2    :      0.62s CPU      0.56s WALL (     609 calls)
     init_us_2:cp :      0.62s CPU      0.56s WALL (     609 calls)
     cegterg      :     32.55s CPU     32.77s WALL (     290 calls)

     Called by *egterg:
     cdiaghg      :      0.14s CPU      0.17s WALL (    1326 calls)
     h_psi        :     27.50s CPU     27.95s WALL (    1355 calls)
     g_psi        :      0.19s CPU      0.12s WALL (    1036 calls)

     Called by h_psi:
     h_psi:calbec :      1.45s CPU      1.70s WALL (    1355 calls)
     vloc_psi     :     24.78s CPU     24.95s WALL (    1355 calls)
     add_vuspsi   :      1.23s CPU      1.22s WALL (    1355 calls)

     General routines
     calbec       :      1.45s CPU      1.69s WALL (    1355 calls)
     fft          :      0.12s CPU      0.15s WALL (     109 calls)
     ffts         :      0.02s CPU      0.01s WALL (      10 calls)
     fftw         :     25.86s CPU     25.95s WALL (   30922 calls)


     PWSCF        :     38.72s CPU     39.10s WALL


   This run was terminated on:  10:28:49   8Jun2024            

=------------------------------------------------------------------------------=
   JOB DONE.
=------------------------------------------------------------------------------=
