
     Program PWSCF v.7.2 starts on  8Jun2024 at 10:31: 3 

     This program is part of the open-source Quantum ESPRESSO suite
     for quantum simulation of materials; please cite
         "P. Giannozzi et al., J. Phys.:Condens. Matter 21 395502 (2009);
         "P. Giannozzi et al., J. Phys.:Condens. Matter 29 465901 (2017);
         "P. Giannozzi et al., J. Chem. Phys. 152 154105 (2020);
          URL http://www.quantum-espresso.org", 
     in publications or presentations arising from this work. More details at
     http://www.quantum-espresso.org/quote

     Serial version
     9293 MiB available memory on the printing compute node when the environment starts

     Waiting for input...
     Reading input from standard input

     Current dimensions of program PWSCF are:
     Max number of different atomic species (ntypx) = 10
     Max number of k-points (npk) =  40000
     Max angular momentum in pseudopotentials (lmaxx) =  4


     G-vector sticks info
     --------------------
     sticks:   dense  smooth     PW     G-vecs:    dense   smooth      PW
     Sum         913     913    271                17933    17933    2975

     Using Slab Decomposition



     bravais-lattice index     =            2
     lattice parameter (alat)  =      10.4472  a.u.
     unit-cell volume          =     285.0591 (a.u.)^3
     number of atoms/cell      =            2
     number of atomic types    =            2
     number of electrons       =        26.00
     number of Kohn-Sham states=           13
     kinetic-energy cutoff     =      60.0000  Ry
     charge density cutoff     =     240.0000  Ry
     scf convergence threshold =      1.0E-08
     mixing beta               =       0.7000
     number of iterations used =            8  plain     mixing
     Exchange-correlation= PBE
                           (   1   4   3   4   0   0   0)

     celldm(1)=  10.447161  celldm(2)=   0.000000  celldm(3)=   0.000000
     celldm(4)=   0.000000  celldm(5)=   0.000000  celldm(6)=   0.000000

     crystal axes: (cart. coord. in units of alat)
               a(1) = (  -0.500000   0.000000   0.500000 )  
               a(2) = (   0.000000   0.500000   0.500000 )  
               a(3) = (  -0.500000   0.500000   0.000000 )  

     reciprocal axes: (cart. coord. in units 2 pi/alat)
               b(1) = ( -1.000000 -1.000000  1.000000 )  
               b(2) = (  1.000000  1.000000  1.000000 )  
               b(3) = ( -1.000000  1.000000 -1.000000 )  


     PseudoPot. # 1 for Zn read from file:
     /home/paolo/project_labqsm/pseudopotentials/Zn_ONCV_PBE-1.2.upf
     MD5 check sum: 732f41c0cd6489a4b50a33b4ec99a2d3
     Pseudo is Norm-conserving, Zval = 20.0
     Generated using ONCVPSP code by D. R. Hamann
     Using radial grid of  602 points,  6 beta functions with: 
                l(1) =   0
                l(2) =   0
                l(3) =   1
                l(4) =   1
                l(5) =   2
                l(6) =   2

     PseudoPot. # 2 for S  read from file:
     /home/paolo/project_labqsm/pseudopotentials/S_ONCV_PBE-1.2.upf
     MD5 check sum: f9d020296ee6110346977bfd66d424f6
     Pseudo is Norm-conserving, Zval =  6.0
     Generated using ONCVPSP code by D. R. Hamann
     Using radial grid of  602 points,  4 beta functions with: 
                l(1) =   0
                l(2) =   0
                l(3) =   1
                l(4) =   1

     atomic species   valence    mass     pseudopotential
        Zn            20.00    65.38000     Zn( 1.00)
        S              6.00    32.06000     S ( 1.00)

     24 Sym. Ops. (no inversion) found



   Cartesian axes

     site n.     atom                  positions (alat units)
         1           Zn  tau(   1) = (   0.0000000   0.0000000   0.0000000  )
         2           S   tau(   2) = (   0.2500000   0.2500000   0.2500000  )

     number of k points=    29
                       cart. coord. in units 2pi/alat
        k(    1) = (   0.0000000   0.0000000   0.0000000), wk =   0.0039062
        k(    2) = (  -0.1250000   0.1250000  -0.1250000), wk =   0.0312500
        k(    3) = (  -0.2500000   0.2500000  -0.2500000), wk =   0.0312500
        k(    4) = (  -0.3750000   0.3750000  -0.3750000), wk =   0.0312500
        k(    5) = (   0.5000000  -0.5000000   0.5000000), wk =   0.0156250
        k(    6) = (   0.0000000   0.2500000   0.0000000), wk =   0.0234375
        k(    7) = (  -0.1250000   0.3750000  -0.1250000), wk =   0.0937500
        k(    8) = (  -0.2500000   0.5000000  -0.2500000), wk =   0.0937500
        k(    9) = (   0.6250000  -0.3750000   0.6250000), wk =   0.0937500
        k(   10) = (   0.5000000  -0.2500000   0.5000000), wk =   0.0937500
        k(   11) = (   0.3750000  -0.1250000   0.3750000), wk =   0.0937500
        k(   12) = (   0.2500000   0.0000000   0.2500000), wk =   0.0468750
        k(   13) = (   0.0000000   0.5000000   0.0000000), wk =   0.0234375
        k(   14) = (  -0.1250000   0.6250000  -0.1250000), wk =   0.0937500
        k(   15) = (   0.7500000  -0.2500000   0.7500000), wk =   0.0937500
        k(   16) = (   0.6250000  -0.1250000   0.6250000), wk =   0.0937500
        k(   17) = (   0.5000000   0.0000000   0.5000000), wk =   0.0468750
        k(   18) = (   0.0000000   0.7500000   0.0000000), wk =   0.0234375
        k(   19) = (   0.8750000  -0.1250000   0.8750000), wk =   0.0937500
        k(   20) = (   0.7500000   0.0000000   0.7500000), wk =   0.0468750
        k(   21) = (   0.0000000  -1.0000000   0.0000000), wk =   0.0117188
        k(   22) = (  -0.2500000   0.5000000   0.0000000), wk =   0.0937500
        k(   23) = (   0.6250000  -0.3750000   0.8750000), wk =   0.1875000
        k(   24) = (   0.5000000  -0.2500000   0.7500000), wk =   0.0937500
        k(   25) = (   0.7500000  -0.2500000   1.0000000), wk =   0.0937500
        k(   26) = (   0.6250000  -0.1250000   0.8750000), wk =   0.1875000
        k(   27) = (   0.5000000   0.0000000   0.7500000), wk =   0.0937500
        k(   28) = (  -0.2500000  -1.0000000   0.0000000), wk =   0.0468750
        k(   29) = (  -0.5000000  -1.0000000   0.0000000), wk =   0.0234375

     Dense  grid:    17933 G-vectors     FFT dimensions: (  40,  40,  40)

     Estimated max dynamical RAM per process >      30.90 MB

     Initial potential from superposition of free atoms

     starting charge      25.9670, renormalised to      26.0000
     Starting wfcs are random

     total cpu time spent up to now is        0.6 secs

     Self-consistent Calculation

     iteration #  1     ecut=    60.00 Ry     beta= 0.70
     Davidson diagonalization with overlap
     ethr =  1.00E-02,  avg # of iterations = 12.7

     Threshold (ethr) on eigenvalues was too large:
     Diagonalizing with lowered threshold

     Davidson diagonalization with overlap
     ethr =  8.99E-04,  avg # of iterations =  2.6

     total cpu time spent up to now is        7.2 secs

     total energy              =    -420.84509992 Ry
     estimated scf accuracy    <       0.12191589 Ry

     iteration #  2     ecut=    60.00 Ry     beta= 0.70
     Davidson diagonalization with overlap
     ethr =  4.69E-04,  avg # of iterations =  2.1

     total cpu time spent up to now is        8.8 secs

     total energy              =    -420.88744025 Ry
     estimated scf accuracy    <       0.06486880 Ry

     iteration #  3     ecut=    60.00 Ry     beta= 0.70
     Davidson diagonalization with overlap
     ethr =  2.49E-04,  avg # of iterations =  2.0

     total cpu time spent up to now is       10.4 secs

     total energy              =    -420.89868863 Ry
     estimated scf accuracy    <       0.00080732 Ry

     iteration #  4     ecut=    60.00 Ry     beta= 0.70
     Davidson diagonalization with overlap
     ethr =  3.11E-06,  avg # of iterations =  3.1

     total cpu time spent up to now is       12.3 secs

     total energy              =    -420.89894888 Ry
     estimated scf accuracy    <       0.00036316 Ry

     iteration #  5     ecut=    60.00 Ry     beta= 0.70
     Davidson diagonalization with overlap
     ethr =  1.40E-06,  avg # of iterations =  2.0

     total cpu time spent up to now is       14.1 secs

     total energy              =    -420.89905549 Ry
     estimated scf accuracy    <       0.00003385 Ry

     iteration #  6     ecut=    60.00 Ry     beta= 0.70
     Davidson diagonalization with overlap
     ethr =  1.30E-07,  avg # of iterations =  2.0

     total cpu time spent up to now is       16.0 secs

     total energy              =    -420.89906575 Ry
     estimated scf accuracy    <       0.00000344 Ry

     iteration #  7     ecut=    60.00 Ry     beta= 0.70
     Davidson diagonalization with overlap
     ethr =  1.32E-08,  avg # of iterations =  2.1

     total cpu time spent up to now is       17.6 secs

     total energy              =    -420.89906600 Ry
     estimated scf accuracy    <       0.00000020 Ry

     iteration #  8     ecut=    60.00 Ry     beta= 0.70
     Davidson diagonalization with overlap
     ethr =  7.85E-10,  avg # of iterations =  3.1

     total cpu time spent up to now is       19.6 secs

     total energy              =    -420.89906610 Ry
     estimated scf accuracy    <       0.00000012 Ry

     iteration #  9     ecut=    60.00 Ry     beta= 0.70
     Davidson diagonalization with overlap
     ethr =  4.80E-10,  avg # of iterations =  2.0

     total cpu time spent up to now is       21.1 secs

     End of self-consistent calculation

          k = 0.0000 0.0000 0.0000 (  2229 PWs)   bands (ev):

  -118.2525 -72.4044 -72.4044 -72.4044  -6.1420   0.4361   0.4361   0.4361
     0.8513   0.8513   6.5437   6.5437   6.5437

          k =-0.1250 0.1250-0.1250 (  2211 PWs)   bands (ev):

  -118.2525 -72.4044 -72.4044 -72.4044  -6.0388   0.4431   0.4544   0.4544
     0.8512   0.8512   5.4690   6.4143   6.4143

          k =-0.2500 0.2500-0.2500 (  2229 PWs)   bands (ev):

  -118.2525 -72.4045 -72.4044 -72.4044  -5.7712   0.4935   0.4935   0.5019
     0.8532   0.8532   3.8651   6.1291   6.1291

          k =-0.3750 0.3750-0.3750 (  2229 PWs)   bands (ev):

  -118.2525 -72.4045 -72.4044 -72.4044  -5.4714   0.5249   0.5249   0.7146
     0.8675   0.8675   2.4624   5.8732   5.8732

          k = 0.5000-0.5000 0.5000 (  2252 PWs)   bands (ev):

  -118.2525 -72.4045 -72.4044 -72.4044  -5.3353   0.5347   0.5347   0.8761
     0.8761   1.0319   1.6925   5.7735   5.7735

          k = 0.0000 0.2500 0.0000 (  2213 PWs)   bands (ev):

  -118.2525 -72.4044 -72.4044 -72.4044  -6.0044   0.4262   0.4703   0.4703
     0.8388   0.8612   5.4842   6.1852   6.1852

          k =-0.1250 0.3750-0.1250 (  2227 PWs)   bands (ev):

  -118.2525 -72.4044 -72.4044 -72.4044  -5.7910   0.4440   0.5116   0.5151
     0.8331   0.8694   4.2892   5.8478   5.9056

          k =-0.2500 0.5000-0.2500 (  2243 PWs)   bands (ev):

  -118.2525 -72.4045 -72.4044 -72.4044  -5.4978   0.5079   0.5484   0.6286
     0.8561   0.8789   2.9262   5.5226   5.6043

          k = 0.6250-0.3750 0.6250 (  2240 PWs)   bands (ev):

  -118.2525 -72.4045 -72.4044 -72.4044  -5.3001   0.5357   0.5615   0.8236
     0.8792   1.0093   1.9286   5.2012   5.5697

          k = 0.5000-0.2500 0.5000 (  2237 PWs)   bands (ev):

  -118.2525 -72.4045 -72.4044 -72.4044  -5.3457   0.5393   0.5511   0.8057
     0.8596   0.9256   2.1893   5.0928   5.7570

          k = 0.3750-0.1250 0.3750 (  2230 PWs)   bands (ev):

  -118.2525 -72.4045 -72.4044 -72.4044  -5.5979   0.5179   0.5209   0.5668
     0.8401   0.8778   3.3549   5.2734   6.0791

          k = 0.2500 0.0000 0.2500 (  2227 PWs)   bands (ev):

  -118.2525 -72.4044 -72.4044 -72.4044  -5.8802   0.4573   0.4757   0.4923
     0.8397   0.8616   4.6338   5.7906   6.3637

          k = 0.0000 0.5000 0.0000 (  2221 PWs)   bands (ev):

  -118.2525 -72.4044 -72.4044 -72.4044  -5.6474   0.4211   0.5617   0.5617
     0.8231   0.8828   4.0563   5.4473   5.4473

          k =-0.1250 0.6250-0.1250 (  2235 PWs)   bands (ev):

  -118.2525 -72.4045 -72.4044 -72.4044  -5.4082   0.4649   0.6101   0.6263
     0.8571   0.8923   3.1977   4.9664   5.1614

          k = 0.7500-0.2500 0.7500 (  2247 PWs)   bands (ev):

  -118.2525 -72.4045 -72.4044 -72.4044  -5.2095   0.5271   0.6284   0.7359
     0.8874   1.0089   2.3595   4.3796   5.1240

          k = 0.6250-0.1250 0.6250 (  2248 PWs)   bands (ev):

  -118.2525 -72.4045 -72.4045 -72.4044  -5.1870   0.5461   0.6129   0.8153
     0.8620   1.0657   2.1941   4.0444   5.3519

          k = 0.5000 0.0000 0.5000 (  2239 PWs)   bands (ev):

  -118.2525 -72.4045 -72.4044 -72.4044  -5.3560   0.5476   0.5687   0.7146
     0.8403   0.9102   2.8119   4.2899   5.7405

          k = 0.0000 0.7500 0.0000 (  2237 PWs)   bands (ev):

  -118.2525 -72.4045 -72.4044 -72.4044  -5.2471   0.4477   0.6723   0.6723
     0.8948   0.9043   2.8460   4.8114   4.8114

          k = 0.8750-0.1250 0.8750 (  2246 PWs)   bands (ev):

  -118.2525 -72.4045 -72.4044 -72.4044  -5.1098   0.4881   0.6970   0.7154
     0.9028   1.0301   2.3948   4.3167   4.7223

          k = 0.7500 0.0000 0.7500 (  2245 PWs)   bands (ev):

  -118.2525 -72.4045 -72.4045 -72.4044  -5.0859   0.5317   0.6741   0.7694
     0.8807   1.1488   2.2464   3.7523   4.9345

          k = 0.0000-1.0000 0.0000 (  2232 PWs)   bands (ev):

  -118.2525 -72.4045 -72.4044 -72.4044  -5.0654   0.4628   0.7251   0.7251
     0.9136   1.0475   2.2477   4.5645   4.5645

          k =-0.2500 0.5000 0.0000 (  2233 PWs)   bands (ev):

  -118.2525 -72.4045 -72.4044 -72.4044  -5.5627   0.4806   0.5515   0.5804
     0.8361   0.8834   3.5492   5.0272   5.7410

          k = 0.6250-0.3750 0.8750 (  2242 PWs)   bands (ev):

  -118.2525 -72.4045 -72.4044 -72.4044  -5.3134   0.5421   0.5787   0.7211
     0.8688   0.9248   2.6082   4.5375   5.4145

          k = 0.5000-0.2500 0.7500 (  2250 PWs)   bands (ev):

  -118.2525 -72.4045 -72.4044 -72.4044  -5.2027   0.5516   0.5949   0.8161
     0.8633   1.0890   2.0406   4.4179   5.2466

          k = 0.7500-0.2500 1.0000 (  2236 PWs)   bands (ev):

  -118.2525 -72.4045 -72.4044 -72.4044  -5.2163   0.5098   0.6365   0.7036
     0.8907   0.9536   2.6809   4.4342   4.8416

          k = 0.6250-0.1250 0.8750 (  2235 PWs)   bands (ev):

  -118.2525 -72.4045 -72.4045 -72.4044  -5.1044   0.5506   0.6525   0.7783
     0.8666   1.1263   2.2848   3.9545   4.7013

          k = 0.5000 0.0000 0.7500 (  2246 PWs)   bands (ev):

  -118.2525 -72.4045 -72.4045 -72.4044  -5.1471   0.5622   0.6225   0.8059
     0.8503   1.0755   2.3618   3.8546   4.9859

          k =-0.2500-1.0000 0.0000 (  2236 PWs)   bands (ev):

  -118.2525 -72.4045 -72.4044 -72.4044  -5.0630   0.5156   0.6945   0.7443
     0.8913   1.1204   2.2610   4.3185   4.3317

          k =-0.5000-1.0000 0.0000 (  2244 PWs)   bands (ev):

  -118.2525 -72.4045 -72.4045 -72.4044  -5.0605   0.5657   0.6715   0.8157
     0.8216   1.1894   2.2776   4.0858   4.1180

     highest occupied level (ev):     6.5437

!    total energy              =    -420.89906612 Ry
     estimated scf accuracy    <          4.0E-09 Ry

     The total energy is the sum of the following terms:
     one-electron contribution =    -346.09650991 Ry
     hartree contribution      =     175.91595917 Ry
     xc contribution           =     -40.95200895 Ry
     ewald contribution        =    -209.76650643 Ry

     convergence has been achieved in   9 iterations

     Writing all to output data dir ./SCRATCH/zns.save/

     init_run     :      0.56s CPU      0.60s WALL (       1 calls)
     electrons    :     20.30s CPU     20.54s WALL (       1 calls)

     Called by init_run:
     wfcinit      :      0.48s CPU      0.52s WALL (       1 calls)
     potinit      :      0.03s CPU      0.04s WALL (       1 calls)
     hinit0       :      0.03s CPU      0.03s WALL (       1 calls)

     Called by electrons:
     c_bands      :     18.05s CPU     18.23s WALL (      10 calls)
     sum_band     :      2.08s CPU      2.07s WALL (      10 calls)
     v_of_rho     :      0.17s CPU      0.24s WALL (      10 calls)
     mix_rho      :      0.02s CPU      0.02s WALL (      10 calls)

     Called by c_bands:
     init_us_2    :      0.31s CPU      0.28s WALL (     609 calls)
     init_us_2:cp :      0.31s CPU      0.28s WALL (     609 calls)
     cegterg      :     17.69s CPU     17.73s WALL (     290 calls)

     Called by *egterg:
     cdiaghg      :      0.20s CPU      0.16s WALL (    1241 calls)
     h_psi        :     15.39s CPU     15.32s WALL (    1299 calls)
     g_psi        :      0.03s CPU      0.06s WALL (     980 calls)

     Called by h_psi:
     h_psi:calbec :      0.77s CPU      0.85s WALL (    1299 calls)
     vloc_psi     :     13.98s CPU     13.81s WALL (    1299 calls)
     add_vuspsi   :      0.53s CPU      0.61s WALL (    1299 calls)

     General routines
     calbec       :      0.77s CPU      0.84s WALL (    1299 calls)
     fft          :      0.06s CPU      0.08s WALL (     100 calls)
     ffts         :      0.00s CPU      0.01s WALL (      10 calls)
     fftw         :     14.25s CPU     14.30s WALL (   30618 calls)


     PWSCF        :     20.86s CPU     21.17s WALL


   This run was terminated on:  10:31:24   8Jun2024            

=------------------------------------------------------------------------------=
   JOB DONE.
=------------------------------------------------------------------------------=
