
     Program PWSCF v.7.2 starts on  8Jun2024 at 10:27:36 

     This program is part of the open-source Quantum ESPRESSO suite
     for quantum simulation of materials; please cite
         "P. Giannozzi et al., J. Phys.:Condens. Matter 21 395502 (2009);
         "P. Giannozzi et al., J. Phys.:Condens. Matter 29 465901 (2017);
         "P. Giannozzi et al., J. Chem. Phys. 152 154105 (2020);
          URL http://www.quantum-espresso.org", 
     in publications or presentations arising from this work. More details at
     http://www.quantum-espresso.org/quote

     Serial version
     9160 MiB available memory on the printing compute node when the environment starts

     Waiting for input...
     Reading input from standard input

     Current dimensions of program PWSCF are:
     Max number of different atomic species (ntypx) = 10
     Max number of k-points (npk) =  40000
     Max angular momentum in pseudopotentials (lmaxx) =  4


     G-vector sticks info
     --------------------
     sticks:   dense  smooth     PW     G-vecs:    dense   smooth      PW
     Sum        1159    1159    349                25893    25893    4279

     Using Slab Decomposition



     bravais-lattice index     =            2
     lattice parameter (alat)  =      10.2423  a.u.
     unit-cell volume          =     268.6175 (a.u.)^3
     number of atoms/cell      =            2
     number of atomic types    =            2
     number of electrons       =        26.00
     number of Kohn-Sham states=           13
     kinetic-energy cutoff     =      80.0000  Ry
     charge density cutoff     =     320.0000  Ry
     scf convergence threshold =      1.0E-08
     mixing beta               =       0.7000
     number of iterations used =            8  plain     mixing
     Exchange-correlation= PBE
                           (   1   4   3   4   0   0   0)

     celldm(1)=  10.242315  celldm(2)=   0.000000  celldm(3)=   0.000000
     celldm(4)=   0.000000  celldm(5)=   0.000000  celldm(6)=   0.000000

     crystal axes: (cart. coord. in units of alat)
               a(1) = (  -0.500000   0.000000   0.500000 )  
               a(2) = (   0.000000   0.500000   0.500000 )  
               a(3) = (  -0.500000   0.500000   0.000000 )  

     reciprocal axes: (cart. coord. in units 2 pi/alat)
               b(1) = ( -1.000000 -1.000000  1.000000 )  
               b(2) = (  1.000000  1.000000  1.000000 )  
               b(3) = ( -1.000000  1.000000 -1.000000 )  


     PseudoPot. # 1 for Zn read from file:
     /home/paolo/project_labqsm/pseudopotentials/Zn_ONCV_PBE-1.2.upf
     MD5 check sum: 732f41c0cd6489a4b50a33b4ec99a2d3
     Pseudo is Norm-conserving, Zval = 20.0
     Generated using ONCVPSP code by D. R. Hamann
     Using radial grid of  602 points,  6 beta functions with: 
                l(1) =   0
                l(2) =   0
                l(3) =   1
                l(4) =   1
                l(5) =   2
                l(6) =   2

     PseudoPot. # 2 for S  read from file:
     /home/paolo/project_labqsm/pseudopotentials/S_ONCV_PBE-1.2.upf
     MD5 check sum: f9d020296ee6110346977bfd66d424f6
     Pseudo is Norm-conserving, Zval =  6.0
     Generated using ONCVPSP code by D. R. Hamann
     Using radial grid of  602 points,  4 beta functions with: 
                l(1) =   0
                l(2) =   0
                l(3) =   1
                l(4) =   1

     atomic species   valence    mass     pseudopotential
        Zn            20.00    65.38000     Zn( 1.00)
        S              6.00    32.06000     S ( 1.00)

     24 Sym. Ops. (no inversion) found



   Cartesian axes

     site n.     atom                  positions (alat units)
         1           Zn  tau(   1) = (   0.0000000   0.0000000   0.0000000  )
         2           S   tau(   2) = (   0.2500000   0.2500000   0.2500000  )

     number of k points=    29
                       cart. coord. in units 2pi/alat
        k(    1) = (   0.0000000   0.0000000   0.0000000), wk =   0.0039062
        k(    2) = (  -0.1250000   0.1250000  -0.1250000), wk =   0.0312500
        k(    3) = (  -0.2500000   0.2500000  -0.2500000), wk =   0.0312500
        k(    4) = (  -0.3750000   0.3750000  -0.3750000), wk =   0.0312500
        k(    5) = (   0.5000000  -0.5000000   0.5000000), wk =   0.0156250
        k(    6) = (   0.0000000   0.2500000   0.0000000), wk =   0.0234375
        k(    7) = (  -0.1250000   0.3750000  -0.1250000), wk =   0.0937500
        k(    8) = (  -0.2500000   0.5000000  -0.2500000), wk =   0.0937500
        k(    9) = (   0.6250000  -0.3750000   0.6250000), wk =   0.0937500
        k(   10) = (   0.5000000  -0.2500000   0.5000000), wk =   0.0937500
        k(   11) = (   0.3750000  -0.1250000   0.3750000), wk =   0.0937500
        k(   12) = (   0.2500000   0.0000000   0.2500000), wk =   0.0468750
        k(   13) = (   0.0000000   0.5000000   0.0000000), wk =   0.0234375
        k(   14) = (  -0.1250000   0.6250000  -0.1250000), wk =   0.0937500
        k(   15) = (   0.7500000  -0.2500000   0.7500000), wk =   0.0937500
        k(   16) = (   0.6250000  -0.1250000   0.6250000), wk =   0.0937500
        k(   17) = (   0.5000000   0.0000000   0.5000000), wk =   0.0468750
        k(   18) = (   0.0000000   0.7500000   0.0000000), wk =   0.0234375
        k(   19) = (   0.8750000  -0.1250000   0.8750000), wk =   0.0937500
        k(   20) = (   0.7500000   0.0000000   0.7500000), wk =   0.0468750
        k(   21) = (   0.0000000  -1.0000000   0.0000000), wk =   0.0117188
        k(   22) = (  -0.2500000   0.5000000   0.0000000), wk =   0.0937500
        k(   23) = (   0.6250000  -0.3750000   0.8750000), wk =   0.1875000
        k(   24) = (   0.5000000  -0.2500000   0.7500000), wk =   0.0937500
        k(   25) = (   0.7500000  -0.2500000   1.0000000), wk =   0.0937500
        k(   26) = (   0.6250000  -0.1250000   0.8750000), wk =   0.1875000
        k(   27) = (   0.5000000   0.0000000   0.7500000), wk =   0.0937500
        k(   28) = (  -0.2500000  -1.0000000   0.0000000), wk =   0.0468750
        k(   29) = (  -0.5000000  -1.0000000   0.0000000), wk =   0.0234375

     Dense  grid:    25893 G-vectors     FFT dimensions: (  45,  45,  45)

     Estimated max dynamical RAM per process >      43.90 MB

     Initial potential from superposition of free atoms

     starting charge      25.9670, renormalised to      26.0000
     Starting wfcs are random

     total cpu time spent up to now is        0.9 secs

     Self-consistent Calculation

     iteration #  1     ecut=    80.00 Ry     beta= 0.70
     Davidson diagonalization with overlap
     ethr =  1.00E-02,  avg # of iterations = 13.0

     Threshold (ethr) on eigenvalues was too large:
     Diagonalizing with lowered threshold

     Davidson diagonalization with overlap
     ethr =  7.88E-04,  avg # of iterations =  2.2

     total cpu time spent up to now is       10.9 secs

     total energy              =    -420.85115312 Ry
     estimated scf accuracy    <       0.11942443 Ry

     iteration #  2     ecut=    80.00 Ry     beta= 0.70
     Davidson diagonalization with overlap
     ethr =  4.59E-04,  avg # of iterations =  2.0

     total cpu time spent up to now is       13.3 secs

     total energy              =    -420.89272901 Ry
     estimated scf accuracy    <       0.06042169 Ry

     iteration #  3     ecut=    80.00 Ry     beta= 0.70
     Davidson diagonalization with overlap
     ethr =  2.32E-04,  avg # of iterations =  2.0

     total cpu time spent up to now is       15.8 secs

     total energy              =    -420.90313949 Ry
     estimated scf accuracy    <       0.00079470 Ry

     iteration #  4     ecut=    80.00 Ry     beta= 0.70
     Davidson diagonalization with overlap
     ethr =  3.06E-06,  avg # of iterations =  3.1

     total cpu time spent up to now is       18.7 secs

     total energy              =    -420.90340744 Ry
     estimated scf accuracy    <       0.00033761 Ry

     iteration #  5     ecut=    80.00 Ry     beta= 0.70
     Davidson diagonalization with overlap
     ethr =  1.30E-06,  avg # of iterations =  2.0

     total cpu time spent up to now is       21.4 secs

     total energy              =    -420.90350545 Ry
     estimated scf accuracy    <       0.00003260 Ry

     iteration #  6     ecut=    80.00 Ry     beta= 0.70
     Davidson diagonalization with overlap
     ethr =  1.25E-07,  avg # of iterations =  2.3

     total cpu time spent up to now is       24.1 secs

     total energy              =    -420.90351582 Ry
     estimated scf accuracy    <       0.00001633 Ry

     iteration #  7     ecut=    80.00 Ry     beta= 0.70
     Davidson diagonalization with overlap
     ethr =  6.28E-08,  avg # of iterations =  2.0

     total cpu time spent up to now is       26.5 secs

     total energy              =    -420.90351829 Ry
     estimated scf accuracy    <       0.00000024 Ry

     iteration #  8     ecut=    80.00 Ry     beta= 0.70
     Davidson diagonalization with overlap
     ethr =  9.29E-10,  avg # of iterations =  3.2

     total cpu time spent up to now is       29.6 secs

     total energy              =    -420.90351849 Ry
     estimated scf accuracy    <       0.00000013 Ry

     iteration #  9     ecut=    80.00 Ry     beta= 0.70
     Davidson diagonalization with overlap
     ethr =  4.85E-10,  avg # of iterations =  2.0

     total cpu time spent up to now is       31.6 secs

     total energy              =    -420.90351848 Ry
     estimated scf accuracy    <       0.00000003 Ry

     iteration # 10     ecut=    80.00 Ry     beta= 0.70
     Davidson diagonalization with overlap
     ethr =  1.06E-10,  avg # of iterations =  2.0

     total cpu time spent up to now is       34.3 secs

     End of self-consistent calculation

          k = 0.0000 0.0000 0.0000 (  3287 PWs)   bands (ev):

  -117.4886 -71.6557 -71.6557 -71.6557  -5.6953   1.0830   1.0830   1.0830
     1.5689   1.5689   7.3809   7.3809   7.3809

          k =-0.1250 0.1250-0.1250 (  3248 PWs)   bands (ev):

  -117.4886 -71.6557 -71.6557 -71.6557  -5.5804   1.0850   1.1036   1.1036
     1.5673   1.5673   6.2736   7.2364   7.2364

          k =-0.2500 0.2500-0.2500 (  3251 PWs)   bands (ev):

  -117.4886 -71.6557 -71.6557 -71.6557  -5.2804   1.1339   1.1487   1.1487
     1.5705   1.5705   4.5727   6.9209   6.9209

          k =-0.3750 0.3750-0.3750 (  3254 PWs)   bands (ev):

  -117.4886 -71.6558 -71.6557 -71.6557  -4.9404   1.1845   1.1845   1.3513
     1.5870   1.5870   3.0656   6.6391   6.6391

          k = 0.5000-0.5000 0.5000 (  3214 PWs)   bands (ev):

  -117.4885 -71.6558 -71.6557 -71.6557  -4.7843   1.1957   1.1957   1.5987
     1.5987   1.7700   2.1537   6.5295   6.5295

          k = 0.0000 0.2500 0.0000 (  3255 PWs)   bands (ev):

  -117.4886 -71.6557 -71.6557 -71.6557  -5.5420   1.0645   1.1214   1.1214
     1.5530   1.5796   6.3156   6.9804   6.9804

          k =-0.1250 0.3750-0.1250 (  3248 PWs)   bands (ev):

  -117.4886 -71.6557 -71.6557 -71.6557  -5.3029   1.0749   1.1693   1.1705
     1.5456   1.5895   5.0419   6.6081   6.6805

          k =-0.2500 0.5000-0.2500 (  3262 PWs)   bands (ev):

  -117.4886 -71.6558 -71.6557 -71.6557  -4.9712   1.1544   1.2118   1.2728
     1.5713   1.6011   3.5724   6.2663   6.3411

          k = 0.6250-0.3750 0.6250 (  3245 PWs)   bands (ev):

  -117.4886 -71.6558 -71.6557 -71.6557  -4.7450   1.1938   1.2267   1.5190
     1.6015   1.7305   2.4481   5.9172   6.3040

          k = 0.5000-0.2500 0.5000 (  3253 PWs)   bands (ev):

  -117.4886 -71.6558 -71.6557 -71.6557  -4.7973   1.1984   1.2150   1.4742
     1.5779   1.6399   2.7587   5.7960   6.5110

          k = 0.3750-0.1250 0.3750 (  3249 PWs)   bands (ev):

  -117.4886 -71.6558 -71.6557 -71.6557  -5.0849   1.1714   1.1777   1.2045
     1.5542   1.5987   4.0369   5.9840   6.8670

          k = 0.2500 0.0000 0.2500 (  3259 PWs)   bands (ev):

  -117.4886 -71.6557 -71.6557 -71.6557  -5.4031   1.0927   1.1290   1.1462
     1.5539   1.5803   5.4060   6.5427   7.1819

          k = 0.0000 0.5000 0.0000 (  3263 PWs)   bands (ev):

  -117.4886 -71.6557 -71.6557 -71.6557  -5.1415   1.0384   1.2268   1.2268
     1.5312   1.6053   4.8261   6.1671   6.1671

          k =-0.1250 0.6250-0.1250 (  3249 PWs)   bands (ev):

  -117.4886 -71.6558 -71.6557 -71.6557  -4.8703   1.0802   1.2831   1.2966
     1.5679   1.6168   3.8966   5.6468   5.8535

          k = 0.7500-0.2500 0.7500 (  3244 PWs)   bands (ev):

  -117.4886 -71.6558 -71.6557 -71.6557  -4.6428   1.1669   1.3050   1.4173
     1.6113   1.7336   2.9494   5.0201   5.8131

          k = 0.6250-0.1250 0.6250 (  3233 PWs)   bands (ev):

  -117.4886 -71.6558 -71.6557 -71.6557  -4.6167   1.1986   1.2875   1.5196
     1.5811   1.7927   2.7428   4.6584   6.0645

          k = 0.5000 0.0000 0.5000 (  3250 PWs)   bands (ev):

  -117.4886 -71.6558 -71.6557 -71.6557  -4.8100   1.2047   1.2368   1.3637
     1.5547   1.6301   3.4620   4.9104   6.4929

          k = 0.0000 0.7500 0.0000 (  3266 PWs)   bands (ev):

  -117.4886 -71.6558 -71.6557 -71.6557  -4.6868   1.0489   1.3561   1.3561
     1.6067   1.6311   3.5309   5.4690   5.4690

          k = 0.8750-0.1250 0.8750 (  3255 PWs)   bands (ev):

  -117.4886 -71.6558 -71.6557 -71.6557  -4.5290   1.0993   1.3863   1.4058
     1.6294   1.7611   3.0209   4.9271   5.3712

          k = 0.7500 0.0000 0.7500 (  3238 PWs)   bands (ev):

  -117.4886 -71.6558 -71.6558 -71.6557  -4.5012   1.1670   1.3594   1.4693
     1.6031   1.9090   2.8104   4.3190   5.6052

          k = 0.0000-1.0000 0.0000 (  3250 PWs)   bands (ev):

  -117.4886 -71.6558 -71.6557 -71.6557  -4.4780   1.0626   1.4192   1.4192
     1.6418   1.7832   2.8626   5.1970   5.1970

          k =-0.2500 0.5000 0.0000 (  3241 PWs)   bands (ev):

  -117.4886 -71.6558 -71.6557 -71.6557  -5.0455   1.1091   1.2132   1.2404
     1.5479   1.6060   4.2654   5.7068   6.4957

          k = 0.6250-0.3750 0.8750 (  3246 PWs)   bands (ev):

  -117.4886 -71.6558 -71.6557 -71.6557  -4.7614   1.1934   1.2436   1.3864
     1.5867   1.6423   3.2313   5.1887   6.1337

          k = 0.5000-0.2500 0.7500 (  3238 PWs)   bands (ev):

  -117.4886 -71.6558 -71.6557 -71.6557  -4.6344   1.2086   1.2643   1.5186
     1.5814   1.8350   2.5559   5.0705   5.9466

          k = 0.7500-0.2500 1.0000 (  3238 PWs)   bands (ev):

  -117.4886 -71.6558 -71.6557 -71.6557  -4.6512   1.1319   1.3132   1.3869
     1.6142   1.6715   3.3355   5.0596   5.5022

          k = 0.6250-0.1250 0.8750 (  3245 PWs)   bands (ev):

  -117.4886 -71.6558 -71.6558 -71.6557  -4.5225   1.1937   1.3330   1.4760
     1.5844   1.8769   2.8569   4.5444   5.3472

          k = 0.5000 0.0000 0.7500 (  3243 PWs)   bands (ev):

  -117.4886 -71.6558 -71.6558 -71.6557  -4.5714   1.2154   1.2963   1.5086
     1.5646   1.8050   2.9480   4.4374   5.6611

          k =-0.2500-1.0000 0.0000 (  3260 PWs)   bands (ev):

  -117.4886 -71.6558 -71.6557 -71.6557  -4.4751   1.1371   1.3850   1.4381
     1.6147   1.8729   2.8535   4.9290   4.9417

          k =-0.5000-1.0000 0.0000 (  3248 PWs)   bands (ev):

  -117.4886 -71.6558 -71.6558 -71.6557  -4.4722   1.2146   1.3593   1.5130
     1.5339   1.9603   2.8421   4.6820   4.7053

     highest occupied level (ev):     7.3809

!    total energy              =    -420.90351849 Ry
     estimated scf accuracy    <          4.2E-09 Ry

     The total energy is the sum of the following terms:
     one-electron contribution =    -339.00525551 Ry
     hartree contribution      =     173.06305911 Ry
     xc contribution           =     -40.99948558 Ry
     ewald contribution        =    -213.96183651 Ry

     convergence has been achieved in  10 iterations

     Writing all to output data dir ./SCRATCH/zns.save/

     init_run     :      0.84s CPU      0.89s WALL (       1 calls)
     electrons    :     33.14s CPU     33.41s WALL (       1 calls)

     Called by init_run:
     wfcinit      :      0.77s CPU      0.78s WALL (       1 calls)
     potinit      :      0.03s CPU      0.05s WALL (       1 calls)
     hinit0       :      0.03s CPU      0.04s WALL (       1 calls)

     Called by electrons:
     c_bands      :     29.28s CPU     29.51s WALL (      11 calls)
     sum_band     :      3.47s CPU      3.52s WALL (      11 calls)
     v_of_rho     :      0.39s CPU      0.37s WALL (      11 calls)
     mix_rho      :      0.03s CPU      0.04s WALL (      11 calls)

     Called by c_bands:
     init_us_2    :      0.45s CPU      0.44s WALL (     667 calls)
     init_us_2:cp :      0.45s CPU      0.44s WALL (     667 calls)
     cegterg      :     28.62s CPU     28.77s WALL (     319 calls)

     Called by *egterg:
     cdiaghg      :      0.19s CPU      0.17s WALL (    1330 calls)
     h_psi        :     24.78s CPU     25.09s WALL (    1388 calls)
     g_psi        :      0.09s CPU      0.09s WALL (    1040 calls)

     Called by h_psi:
     h_psi:calbec :      1.39s CPU      1.31s WALL (    1388 calls)
     vloc_psi     :     22.39s CPU     22.78s WALL (    1388 calls)
     add_vuspsi   :      0.95s CPU      0.94s WALL (    1388 calls)

     General routines
     calbec       :      1.39s CPU      1.30s WALL (    1388 calls)
     fft          :      0.11s CPU      0.12s WALL (     110 calls)
     ffts         :      0.02s CPU      0.01s WALL (      11 calls)
     fftw         :     23.52s CPU     23.88s WALL (   33339 calls)


     PWSCF        :     34.00s CPU     34.34s WALL


   This run was terminated on:  10:28:10   8Jun2024            

=------------------------------------------------------------------------------=
   JOB DONE.
=------------------------------------------------------------------------------=
