
     Program PWSCF v.7.2 starts on  8Jun2024 at 10:33:10 

     This program is part of the open-source Quantum ESPRESSO suite
     for quantum simulation of materials; please cite
         "P. Giannozzi et al., J. Phys.:Condens. Matter 21 395502 (2009);
         "P. Giannozzi et al., J. Phys.:Condens. Matter 29 465901 (2017);
         "P. Giannozzi et al., J. Chem. Phys. 152 154105 (2020);
          URL http://www.quantum-espresso.org", 
     in publications or presentations arising from this work. More details at
     http://www.quantum-espresso.org/quote

     Serial version
     9368 MiB available memory on the printing compute node when the environment starts

     Waiting for input...
     Reading input from standard input

     Current dimensions of program PWSCF are:
     Max number of different atomic species (ntypx) = 10
     Max number of k-points (npk) =  40000
     Max angular momentum in pseudopotentials (lmaxx) =  4


     G-vector sticks info
     --------------------
     sticks:   dense  smooth     PW     G-vecs:    dense   smooth      PW
     Sum        1801    1801    511                50629    50629    7799

     Using Slab Decomposition



     bravais-lattice index     =            2
     lattice parameter (alat)  =      10.4472  a.u.
     unit-cell volume          =     285.0591 (a.u.)^3
     number of atoms/cell      =            2
     number of atomic types    =            2
     number of electrons       =        26.00
     number of Kohn-Sham states=           13
     kinetic-energy cutoff     =     120.0000  Ry
     charge density cutoff     =     480.0000  Ry
     scf convergence threshold =      1.0E-08
     mixing beta               =       0.7000
     number of iterations used =            8  plain     mixing
     Exchange-correlation= PBE
                           (   1   4   3   4   0   0   0)

     celldm(1)=  10.447161  celldm(2)=   0.000000  celldm(3)=   0.000000
     celldm(4)=   0.000000  celldm(5)=   0.000000  celldm(6)=   0.000000

     crystal axes: (cart. coord. in units of alat)
               a(1) = (  -0.500000   0.000000   0.500000 )  
               a(2) = (   0.000000   0.500000   0.500000 )  
               a(3) = (  -0.500000   0.500000   0.000000 )  

     reciprocal axes: (cart. coord. in units 2 pi/alat)
               b(1) = ( -1.000000 -1.000000  1.000000 )  
               b(2) = (  1.000000  1.000000  1.000000 )  
               b(3) = ( -1.000000  1.000000 -1.000000 )  


     PseudoPot. # 1 for Zn read from file:
     /home/paolo/project_labqsm/pseudopotentials/Zn_ONCV_PBE-1.2.upf
     MD5 check sum: 732f41c0cd6489a4b50a33b4ec99a2d3
     Pseudo is Norm-conserving, Zval = 20.0
     Generated using ONCVPSP code by D. R. Hamann
     Using radial grid of  602 points,  6 beta functions with: 
                l(1) =   0
                l(2) =   0
                l(3) =   1
                l(4) =   1
                l(5) =   2
                l(6) =   2

     PseudoPot. # 2 for S  read from file:
     /home/paolo/project_labqsm/pseudopotentials/S_ONCV_PBE-1.2.upf
     MD5 check sum: f9d020296ee6110346977bfd66d424f6
     Pseudo is Norm-conserving, Zval =  6.0
     Generated using ONCVPSP code by D. R. Hamann
     Using radial grid of  602 points,  4 beta functions with: 
                l(1) =   0
                l(2) =   0
                l(3) =   1
                l(4) =   1

     atomic species   valence    mass     pseudopotential
        Zn            20.00    65.38000     Zn( 1.00)
        S              6.00    32.06000     S ( 1.00)

     24 Sym. Ops. (no inversion) found



   Cartesian axes

     site n.     atom                  positions (alat units)
         1           Zn  tau(   1) = (   0.0000000   0.0000000   0.0000000  )
         2           S   tau(   2) = (   0.2500000   0.2500000   0.2500000  )

     number of k points=    29
                       cart. coord. in units 2pi/alat
        k(    1) = (   0.0000000   0.0000000   0.0000000), wk =   0.0039062
        k(    2) = (  -0.1250000   0.1250000  -0.1250000), wk =   0.0312500
        k(    3) = (  -0.2500000   0.2500000  -0.2500000), wk =   0.0312500
        k(    4) = (  -0.3750000   0.3750000  -0.3750000), wk =   0.0312500
        k(    5) = (   0.5000000  -0.5000000   0.5000000), wk =   0.0156250
        k(    6) = (   0.0000000   0.2500000   0.0000000), wk =   0.0234375
        k(    7) = (  -0.1250000   0.3750000  -0.1250000), wk =   0.0937500
        k(    8) = (  -0.2500000   0.5000000  -0.2500000), wk =   0.0937500
        k(    9) = (   0.6250000  -0.3750000   0.6250000), wk =   0.0937500
        k(   10) = (   0.5000000  -0.2500000   0.5000000), wk =   0.0937500
        k(   11) = (   0.3750000  -0.1250000   0.3750000), wk =   0.0937500
        k(   12) = (   0.2500000   0.0000000   0.2500000), wk =   0.0468750
        k(   13) = (   0.0000000   0.5000000   0.0000000), wk =   0.0234375
        k(   14) = (  -0.1250000   0.6250000  -0.1250000), wk =   0.0937500
        k(   15) = (   0.7500000  -0.2500000   0.7500000), wk =   0.0937500
        k(   16) = (   0.6250000  -0.1250000   0.6250000), wk =   0.0937500
        k(   17) = (   0.5000000   0.0000000   0.5000000), wk =   0.0468750
        k(   18) = (   0.0000000   0.7500000   0.0000000), wk =   0.0234375
        k(   19) = (   0.8750000  -0.1250000   0.8750000), wk =   0.0937500
        k(   20) = (   0.7500000   0.0000000   0.7500000), wk =   0.0468750
        k(   21) = (   0.0000000  -1.0000000   0.0000000), wk =   0.0117188
        k(   22) = (  -0.2500000   0.5000000   0.0000000), wk =   0.0937500
        k(   23) = (   0.6250000  -0.3750000   0.8750000), wk =   0.1875000
        k(   24) = (   0.5000000  -0.2500000   0.7500000), wk =   0.0937500
        k(   25) = (   0.7500000  -0.2500000   1.0000000), wk =   0.0937500
        k(   26) = (   0.6250000  -0.1250000   0.8750000), wk =   0.1875000
        k(   27) = (   0.5000000   0.0000000   0.7500000), wk =   0.0937500
        k(   28) = (  -0.2500000  -1.0000000   0.0000000), wk =   0.0468750
        k(   29) = (  -0.5000000  -1.0000000   0.0000000), wk =   0.0234375

     Dense  grid:    50629 G-vectors     FFT dimensions: (  54,  54,  54)

     Estimated max dynamical RAM per process >      82.15 MB

     Initial potential from superposition of free atoms

     starting charge      25.9670, renormalised to      26.0000
     Starting wfcs are random

     total cpu time spent up to now is        1.7 secs

     Self-consistent Calculation

     iteration #  1     ecut=   120.00 Ry     beta= 0.70
     Davidson diagonalization with overlap
     ethr =  1.00E-02,  avg # of iterations = 13.0

     total cpu time spent up to now is       16.6 secs

     total energy              =    -420.44199140 Ry
     estimated scf accuracy    <       0.30966544 Ry

     iteration #  2     ecut=   120.00 Ry     beta= 0.70
     Davidson diagonalization with overlap
     ethr =  1.19E-03,  avg # of iterations =  3.9

     total cpu time spent up to now is       22.3 secs

     total energy              =    -420.86265932 Ry
     estimated scf accuracy    <       0.41839257 Ry

     iteration #  3     ecut=   120.00 Ry     beta= 0.70
     Davidson diagonalization with overlap
     ethr =  1.19E-03,  avg # of iterations =  2.0

     total cpu time spent up to now is       26.9 secs

     total energy              =    -420.89265950 Ry
     estimated scf accuracy    <       0.03399343 Ry

     iteration #  4     ecut=   120.00 Ry     beta= 0.70
     Davidson diagonalization with overlap
     ethr =  1.31E-04,  avg # of iterations =  2.1

     total cpu time spent up to now is       31.5 secs

     total energy              =    -420.90273423 Ry
     estimated scf accuracy    <       0.00034507 Ry

     iteration #  5     ecut=   120.00 Ry     beta= 0.70
     Davidson diagonalization with overlap
     ethr =  1.33E-06,  avg # of iterations =  3.9

     total cpu time spent up to now is       37.3 secs

     total energy              =    -420.90295690 Ry
     estimated scf accuracy    <       0.00011520 Ry

     iteration #  6     ecut=   120.00 Ry     beta= 0.70
     Davidson diagonalization with overlap
     ethr =  4.43E-07,  avg # of iterations =  2.0

     total cpu time spent up to now is       41.5 secs

     total energy              =    -420.90293698 Ry
     estimated scf accuracy    <       0.00005492 Ry

     iteration #  7     ecut=   120.00 Ry     beta= 0.70
     Davidson diagonalization with overlap
     ethr =  2.11E-07,  avg # of iterations =  2.9

     total cpu time spent up to now is       46.8 secs

     total energy              =    -420.90295917 Ry
     estimated scf accuracy    <       0.00002147 Ry

     iteration #  8     ecut=   120.00 Ry     beta= 0.70
     Davidson diagonalization with overlap
     ethr =  8.26E-08,  avg # of iterations =  2.0

     total cpu time spent up to now is       50.9 secs

     total energy              =    -420.90295964 Ry
     estimated scf accuracy    <       0.00000237 Ry

     iteration #  9     ecut=   120.00 Ry     beta= 0.70
     Davidson diagonalization with overlap
     ethr =  9.12E-09,  avg # of iterations =  2.2

     total cpu time spent up to now is       55.9 secs

     total energy              =    -420.90296059 Ry
     estimated scf accuracy    <       0.00000021 Ry

     iteration # 10     ecut=   120.00 Ry     beta= 0.70
     Davidson diagonalization with overlap
     ethr =  8.14E-10,  avg # of iterations =  2.0

     total cpu time spent up to now is       60.5 secs

     End of self-consistent calculation

          k = 0.0000 0.0000 0.0000 (  6303 PWs)   bands (ev):

  -118.2145 -72.3786 -72.3786 -72.3786  -6.1409   0.4441   0.4441   0.4441
     0.8608   0.8608   6.5432   6.5432   6.5432

          k =-0.1250 0.1250-0.1250 (  6306 PWs)   bands (ev):

  -118.2145 -72.3786 -72.3786 -72.3786  -6.0377   0.4509   0.4621   0.4621
     0.8595   0.8595   5.4695   6.4137   6.4137

          k =-0.2500 0.2500-0.2500 (  6318 PWs)   bands (ev):

  -118.2145 -72.3786 -72.3786 -72.3786  -5.7701   0.5016   0.5016   0.5095
     0.8624   0.8624   3.8664   6.1288   6.1288

          k =-0.3750 0.3750-0.3750 (  6324 PWs)   bands (ev):

  -118.2145 -72.3787 -72.3786 -72.3786  -5.4702   0.5329   0.5329   0.7218
     0.8764   0.8764   2.4643   5.8731   5.8731

          k = 0.5000-0.5000 0.5000 (  6322 PWs)   bands (ev):

  -118.2145 -72.3787 -72.3786 -72.3786  -5.3340   0.5428   0.5428   0.8862
     0.8862   1.0412   1.6932   5.7736   5.7736

          k = 0.0000 0.2500 0.0000 (  6310 PWs)   bands (ev):

  -118.2145 -72.3786 -72.3786 -72.3786  -6.0033   0.4337   0.4780   0.4780
     0.8476   0.8698   5.4846   6.1847   6.1847

          k =-0.1250 0.3750-0.1250 (  6313 PWs)   bands (ev):

  -118.2145 -72.3786 -72.3786 -72.3786  -5.7899   0.4514   0.5199   0.5235
     0.8419   0.8782   4.2904   5.8478   5.9055

          k =-0.2500 0.5000-0.2500 (  6312 PWs)   bands (ev):

  -118.2145 -72.3787 -72.3786 -72.3786  -5.4966   0.5161   0.5569   0.6363
     0.8654   0.8882   2.9281   5.5229   5.6045

          k = 0.6250-0.3750 0.6250 (  6329 PWs)   bands (ev):

  -118.2145 -72.3787 -72.3786 -72.3786  -5.2989   0.5438   0.5697   0.8326
     0.8886   1.0178   1.9299   5.2015   5.5699

          k = 0.5000-0.2500 0.5000 (  6331 PWs)   bands (ev):

  -118.2145 -72.3787 -72.3786 -72.3786  -5.3444   0.5472   0.5592   0.8139
     0.8689   0.9346   2.1911   5.0932   5.7570

          k = 0.3750-0.1250 0.3750 (  6322 PWs)   bands (ev):

  -118.2145 -72.3787 -72.3786 -72.3786  -5.5968   0.5263   0.5289   0.5742
     0.8489   0.8866   3.3565   5.2736   6.0790

          k = 0.2500 0.0000 0.2500 (  6301 PWs)   bands (ev):

  -118.2145 -72.3786 -72.3786 -72.3786  -5.8791   0.4650   0.4839   0.5006
     0.8484   0.8706   4.6348   5.7907   6.3634

          k = 0.0000 0.5000 0.0000 (  6302 PWs)   bands (ev):

  -118.2145 -72.3786 -72.3786 -72.3786  -5.6462   0.4278   0.5702   0.5702
     0.8308   0.8916   4.0575   5.4475   5.4475

          k =-0.1250 0.6250-0.1250 (  6324 PWs)   bands (ev):

  -118.2145 -72.3787 -72.3786 -72.3786  -5.4070   0.4721   0.6186   0.6348
     0.8656   0.9013   3.1995   4.9669   5.1617

          k = 0.7500-0.2500 0.7500 (  6335 PWs)   bands (ev):

  -118.2145 -72.3787 -72.3786 -72.3786  -5.2082   0.5353   0.6372   0.7446
     0.8969   1.0176   2.3613   4.3803   5.1245

          k = 0.6250-0.1250 0.6250 (  6345 PWs)   bands (ev):

  -118.2145 -72.3787 -72.3786 -72.3786  -5.1857   0.5542   0.6219   0.8247
     0.8717   1.0744   2.1954   4.0451   5.3523

          k = 0.5000 0.0000 0.5000 (  6351 PWs)   bands (ev):

  -118.2145 -72.3787 -72.3786 -72.3786  -5.3547   0.5554   0.5777   0.7222
     0.8495   0.9194   2.8137   4.2904   5.7407

          k = 0.0000 0.7500 0.0000 (  6314 PWs)   bands (ev):

  -118.2145 -72.3787 -72.3786 -72.3786  -5.2458   0.4548   0.6810   0.6810
     0.9032   0.9134   2.8483   4.8120   4.8120

          k = 0.8750-0.1250 0.8750 (  6330 PWs)   bands (ev):

  -118.2145 -72.3787 -72.3786 -72.3786  -5.1085   0.4956   0.7065   0.7244
     0.9121   1.0385   2.3972   4.3172   4.7229

          k = 0.7500 0.0000 0.7500 (  6327 PWs)   bands (ev):

  -118.2145 -72.3787 -72.3787 -72.3786  -5.0845   0.5394   0.6835   0.7787
     0.8902   1.1575   2.2479   3.7530   4.9352

          k = 0.0000-1.0000 0.0000 (  6346 PWs)   bands (ev):

  -118.2145 -72.3787 -72.3786 -72.3786  -5.0641   0.4700   0.7342   0.7342
     0.9224   1.0549   2.2503   4.5650   4.5650

          k =-0.2500 0.5000 0.0000 (  6313 PWs)   bands (ev):

  -118.2145 -72.3787 -72.3786 -72.3786  -5.5616   0.4879   0.5597   0.5887
     0.8449   0.8926   3.5508   5.0275   5.7411

          k = 0.6250-0.3750 0.8750 (  6319 PWs)   bands (ev):

  -118.2145 -72.3787 -72.3786 -72.3786  -5.3121   0.5503   0.5871   0.7295
     0.8779   0.9338   2.6101   4.5381   5.4149

          k = 0.5000-0.2500 0.7500 (  6326 PWs)   bands (ev):

  -118.2145 -72.3787 -72.3786 -72.3786  -5.2015   0.5601   0.6038   0.8256
     0.8729   1.0981   2.0417   4.4186   5.2471

          k = 0.7500-0.2500 1.0000 (  6347 PWs)   bands (ev):

  -118.2145 -72.3787 -72.3786 -72.3786  -5.2150   0.5171   0.6453   0.7125
     0.8998   0.9618   2.6829   4.4348   4.8421

          k = 0.6250-0.1250 0.8750 (  6342 PWs)   bands (ev):

  -118.2145 -72.3787 -72.3787 -72.3786  -5.1031   0.5585   0.6614   0.7874
     0.8758   1.1348   2.2863   3.9551   4.7018

          k = 0.5000 0.0000 0.7500 (  6331 PWs)   bands (ev):

  -118.2145 -72.3787 -72.3787 -72.3786  -5.1458   0.5704   0.6315   0.8153
     0.8597   1.0843   2.3634   3.8552   4.9864

          k =-0.2500-1.0000 0.0000 (  6332 PWs)   bands (ev):

  -118.2145 -72.3787 -72.3786 -72.3786  -5.0616   0.5231   0.7037   0.7536
     0.9003   1.1284   2.2630   4.3192   4.3321

          k =-0.5000-1.0000 0.0000 (  6352 PWs)   bands (ev):

  -118.2145 -72.3787 -72.3787 -72.3786  -5.0592   0.5742   0.6807   0.8250
     0.8311   1.1983   2.2790   4.0869   4.1182

     highest occupied level (ev):     6.5432

!    total energy              =    -420.90296062 Ry
     estimated scf accuracy    <          2.6E-09 Ry

     The total energy is the sum of the following terms:
     one-electron contribution =    -346.12608866 Ry
     hartree contribution      =     175.94330227 Ry
     xc contribution           =     -40.95366785 Ry
     ewald contribution        =    -209.76650638 Ry

     convergence has been achieved in  10 iterations

     Writing all to output data dir ./SCRATCH/zns.save/

     init_run     :      1.58s CPU      1.66s WALL (       1 calls)
     electrons    :     58.56s CPU     58.82s WALL (       1 calls)

     Called by init_run:
     wfcinit      :      1.42s CPU      1.48s WALL (       1 calls)
     potinit      :      0.08s CPU      0.09s WALL (       1 calls)
     hinit0       :      0.03s CPU      0.05s WALL (       1 calls)

     Called by electrons:
     c_bands      :     51.97s CPU     52.16s WALL (      10 calls)
     sum_band     :      5.98s CPU      5.99s WALL (      10 calls)
     v_of_rho     :      0.62s CPU      0.66s WALL (      11 calls)
     mix_rho      :      0.05s CPU      0.08s WALL (      10 calls)

     Called by c_bands:
     init_us_2    :      0.80s CPU      0.79s WALL (     609 calls)
     init_us_2:cp :      0.80s CPU      0.79s WALL (     609 calls)
     cegterg      :     50.86s CPU     50.88s WALL (     290 calls)

     Called by *egterg:
     cdiaghg      :      0.16s CPU      0.18s WALL (    1334 calls)
     h_psi        :     44.09s CPU     44.30s WALL (    1363 calls)
     g_psi        :      0.17s CPU      0.16s WALL (    1044 calls)

     Called by h_psi:
     h_psi:calbec :      2.20s CPU      2.44s WALL (    1363 calls)
     vloc_psi     :     40.06s CPU     40.01s WALL (    1363 calls)
     add_vuspsi   :      1.78s CPU      1.72s WALL (    1363 calls)

     General routines
     calbec       :      2.19s CPU      2.43s WALL (    1363 calls)
     fft          :      0.20s CPU      0.23s WALL (     109 calls)
     ffts         :      0.05s CPU      0.02s WALL (      10 calls)
     fftw         :     42.17s CPU     41.86s WALL (   30976 calls)


     PWSCF        :   1m 0.16s CPU   1m 0.54s WALL


   This run was terminated on:  10:34:10   8Jun2024            

=------------------------------------------------------------------------------=
   JOB DONE.
=------------------------------------------------------------------------------=
