
     Program PWSCF v.7.2 starts on  8Jun2024 at 10:28:49 

     This program is part of the open-source Quantum ESPRESSO suite
     for quantum simulation of materials; please cite
         "P. Giannozzi et al., J. Phys.:Condens. Matter 21 395502 (2009);
         "P. Giannozzi et al., J. Phys.:Condens. Matter 29 465901 (2017);
         "P. Giannozzi et al., J. Chem. Phys. 152 154105 (2020);
          URL http://www.quantum-espresso.org", 
     in publications or presentations arising from this work. More details at
     http://www.quantum-espresso.org/quote

     Serial version
     9362 MiB available memory on the printing compute node when the environment starts

     Waiting for input...
     Reading input from standard input

     Current dimensions of program PWSCF are:
     Max number of different atomic species (ntypx) = 10
     Max number of k-points (npk) =  40000
     Max angular momentum in pseudopotentials (lmaxx) =  4


     G-vector sticks info
     --------------------
     sticks:   dense  smooth     PW     G-vecs:    dense   smooth      PW
     Sum        1735    1735    499                47831    47831    7391

     Using Slab Decomposition



     bravais-lattice index     =            2
     lattice parameter (alat)  =      10.2423  a.u.
     unit-cell volume          =     268.6175 (a.u.)^3
     number of atoms/cell      =            2
     number of atomic types    =            2
     number of electrons       =        26.00
     number of Kohn-Sham states=           13
     kinetic-energy cutoff     =     120.0000  Ry
     charge density cutoff     =     480.0000  Ry
     scf convergence threshold =      1.0E-08
     mixing beta               =       0.7000
     number of iterations used =            8  plain     mixing
     Exchange-correlation= PBE
                           (   1   4   3   4   0   0   0)

     celldm(1)=  10.242315  celldm(2)=   0.000000  celldm(3)=   0.000000
     celldm(4)=   0.000000  celldm(5)=   0.000000  celldm(6)=   0.000000

     crystal axes: (cart. coord. in units of alat)
               a(1) = (  -0.500000   0.000000   0.500000 )  
               a(2) = (   0.000000   0.500000   0.500000 )  
               a(3) = (  -0.500000   0.500000   0.000000 )  

     reciprocal axes: (cart. coord. in units 2 pi/alat)
               b(1) = ( -1.000000 -1.000000  1.000000 )  
               b(2) = (  1.000000  1.000000  1.000000 )  
               b(3) = ( -1.000000  1.000000 -1.000000 )  


     PseudoPot. # 1 for Zn read from file:
     /home/paolo/project_labqsm/pseudopotentials/Zn_ONCV_PBE-1.2.upf
     MD5 check sum: 732f41c0cd6489a4b50a33b4ec99a2d3
     Pseudo is Norm-conserving, Zval = 20.0
     Generated using ONCVPSP code by D. R. Hamann
     Using radial grid of  602 points,  6 beta functions with: 
                l(1) =   0
                l(2) =   0
                l(3) =   1
                l(4) =   1
                l(5) =   2
                l(6) =   2

     PseudoPot. # 2 for S  read from file:
     /home/paolo/project_labqsm/pseudopotentials/S_ONCV_PBE-1.2.upf
     MD5 check sum: f9d020296ee6110346977bfd66d424f6
     Pseudo is Norm-conserving, Zval =  6.0
     Generated using ONCVPSP code by D. R. Hamann
     Using radial grid of  602 points,  4 beta functions with: 
                l(1) =   0
                l(2) =   0
                l(3) =   1
                l(4) =   1

     atomic species   valence    mass     pseudopotential
        Zn            20.00    65.38000     Zn( 1.00)
        S              6.00    32.06000     S ( 1.00)

     24 Sym. Ops. (no inversion) found



   Cartesian axes

     site n.     atom                  positions (alat units)
         1           Zn  tau(   1) = (   0.0000000   0.0000000   0.0000000  )
         2           S   tau(   2) = (   0.2500000   0.2500000   0.2500000  )

     number of k points=    29
                       cart. coord. in units 2pi/alat
        k(    1) = (   0.0000000   0.0000000   0.0000000), wk =   0.0039062
        k(    2) = (  -0.1250000   0.1250000  -0.1250000), wk =   0.0312500
        k(    3) = (  -0.2500000   0.2500000  -0.2500000), wk =   0.0312500
        k(    4) = (  -0.3750000   0.3750000  -0.3750000), wk =   0.0312500
        k(    5) = (   0.5000000  -0.5000000   0.5000000), wk =   0.0156250
        k(    6) = (   0.0000000   0.2500000   0.0000000), wk =   0.0234375
        k(    7) = (  -0.1250000   0.3750000  -0.1250000), wk =   0.0937500
        k(    8) = (  -0.2500000   0.5000000  -0.2500000), wk =   0.0937500
        k(    9) = (   0.6250000  -0.3750000   0.6250000), wk =   0.0937500
        k(   10) = (   0.5000000  -0.2500000   0.5000000), wk =   0.0937500
        k(   11) = (   0.3750000  -0.1250000   0.3750000), wk =   0.0937500
        k(   12) = (   0.2500000   0.0000000   0.2500000), wk =   0.0468750
        k(   13) = (   0.0000000   0.5000000   0.0000000), wk =   0.0234375
        k(   14) = (  -0.1250000   0.6250000  -0.1250000), wk =   0.0937500
        k(   15) = (   0.7500000  -0.2500000   0.7500000), wk =   0.0937500
        k(   16) = (   0.6250000  -0.1250000   0.6250000), wk =   0.0937500
        k(   17) = (   0.5000000   0.0000000   0.5000000), wk =   0.0468750
        k(   18) = (   0.0000000   0.7500000   0.0000000), wk =   0.0234375
        k(   19) = (   0.8750000  -0.1250000   0.8750000), wk =   0.0937500
        k(   20) = (   0.7500000   0.0000000   0.7500000), wk =   0.0468750
        k(   21) = (   0.0000000  -1.0000000   0.0000000), wk =   0.0117188
        k(   22) = (  -0.2500000   0.5000000   0.0000000), wk =   0.0937500
        k(   23) = (   0.6250000  -0.3750000   0.8750000), wk =   0.1875000
        k(   24) = (   0.5000000  -0.2500000   0.7500000), wk =   0.0937500
        k(   25) = (   0.7500000  -0.2500000   1.0000000), wk =   0.0937500
        k(   26) = (   0.6250000  -0.1250000   0.8750000), wk =   0.1875000
        k(   27) = (   0.5000000   0.0000000   0.7500000), wk =   0.0937500
        k(   28) = (  -0.2500000  -1.0000000   0.0000000), wk =   0.0468750
        k(   29) = (  -0.5000000  -1.0000000   0.0000000), wk =   0.0234375

     Dense  grid:    47831 G-vectors     FFT dimensions: (  54,  54,  54)

     Estimated max dynamical RAM per process >      78.29 MB

     Initial potential from superposition of free atoms

     starting charge      25.9670, renormalised to      26.0000
     Starting wfcs are random

     total cpu time spent up to now is        1.6 secs

     Self-consistent Calculation

     iteration #  1     ecut=   120.00 Ry     beta= 0.70
     Davidson diagonalization with overlap
     ethr =  1.00E-02,  avg # of iterations = 13.2

     total cpu time spent up to now is       16.4 secs

     total energy              =    -420.47466117 Ry
     estimated scf accuracy    <       0.29209066 Ry

     iteration #  2     ecut=   120.00 Ry     beta= 0.70
     Davidson diagonalization with overlap
     ethr =  1.12E-03,  avg # of iterations =  3.8

     total cpu time spent up to now is       22.0 secs

     total energy              =    -420.86611573 Ry
     estimated scf accuracy    <       0.37944924 Ry

     iteration #  3     ecut=   120.00 Ry     beta= 0.70
     Davidson diagonalization with overlap
     ethr =  1.12E-03,  avg # of iterations =  2.0

     total cpu time spent up to now is       26.4 secs

     total energy              =    -420.89348479 Ry
     estimated scf accuracy    <       0.02912303 Ry

     iteration #  4     ecut=   120.00 Ry     beta= 0.70
     Davidson diagonalization with overlap
     ethr =  1.12E-04,  avg # of iterations =  2.0

     total cpu time spent up to now is       30.9 secs

     total energy              =    -420.90378640 Ry
     estimated scf accuracy    <       0.00100828 Ry

     iteration #  5     ecut=   120.00 Ry     beta= 0.70
     Davidson diagonalization with overlap
     ethr =  3.88E-06,  avg # of iterations =  2.2

     total cpu time spent up to now is       35.7 secs

     total energy              =    -420.90404488 Ry
     estimated scf accuracy    <       0.00006788 Ry

     iteration #  6     ecut=   120.00 Ry     beta= 0.70
     Davidson diagonalization with overlap
     ethr =  2.61E-07,  avg # of iterations =  2.8

     total cpu time spent up to now is       40.9 secs

     total energy              =    -420.90402745 Ry
     estimated scf accuracy    <       0.00006026 Ry

     iteration #  7     ecut=   120.00 Ry     beta= 0.70
     Davidson diagonalization with overlap
     ethr =  2.32E-07,  avg # of iterations =  3.0

     total cpu time spent up to now is       46.3 secs

     total energy              =    -420.90404934 Ry
     estimated scf accuracy    <       0.00004688 Ry

     iteration #  8     ecut=   120.00 Ry     beta= 0.70
     Davidson diagonalization with overlap
     ethr =  1.80E-07,  avg # of iterations =  2.0

     total cpu time spent up to now is       50.6 secs

     total energy              =    -420.90405495 Ry
     estimated scf accuracy    <       0.00000187 Ry

     iteration #  9     ecut=   120.00 Ry     beta= 0.70
     Davidson diagonalization with overlap
     ethr =  7.21E-09,  avg # of iterations =  3.0

     total cpu time spent up to now is       55.9 secs

     total energy              =    -420.90405590 Ry
     estimated scf accuracy    <       0.00000024 Ry

     iteration # 10     ecut=   120.00 Ry     beta= 0.70
     Davidson diagonalization with overlap
     ethr =  9.16E-10,  avg # of iterations =  2.0

     total cpu time spent up to now is       60.1 secs

     total energy              =    -420.90405592 Ry
     estimated scf accuracy    <       0.00000003 Ry

     iteration # 11     ecut=   120.00 Ry     beta= 0.70
     Davidson diagonalization with overlap
     ethr =  1.32E-10,  avg # of iterations =  1.9

     total cpu time spent up to now is       63.9 secs

     total energy              =    -420.90405592 Ry
     estimated scf accuracy    <       0.00000001 Ry

     iteration # 12     ecut=   120.00 Ry     beta= 0.70
     Davidson diagonalization with overlap
     ethr =  5.06E-11,  avg # of iterations =  2.0

     total cpu time spent up to now is       68.1 secs

     End of self-consistent calculation

          k = 0.0000 0.0000 0.0000 (  5961 PWs)   bands (ev):

  -117.4902 -71.6579 -71.6579 -71.6579  -5.6950   1.0810   1.0810   1.0810
     1.5666   1.5666   7.3807   7.3807   7.3807

          k =-0.1250 0.1250-0.1250 (  5967 PWs)   bands (ev):

  -117.4902 -71.6579 -71.6579 -71.6579  -5.5800   1.0830   1.1016   1.1016
     1.5650   1.5650   6.2735   7.2362   7.2362

          k =-0.2500 0.2500-0.2500 (  5988 PWs)   bands (ev):

  -117.4902 -71.6580 -71.6579 -71.6579  -5.2801   1.1320   1.1467   1.1467
     1.5682   1.5682   4.5725   6.9208   6.9208

          k =-0.3750 0.3750-0.3750 (  5957 PWs)   bands (ev):

  -117.4902 -71.6581 -71.6579 -71.6579  -4.9400   1.1824   1.1824   1.3497
     1.5847   1.5847   3.0653   6.6390   6.6390

          k = 0.5000-0.5000 0.5000 (  5996 PWs)   bands (ev):

  -117.4902 -71.6581 -71.6579 -71.6579  -4.7840   1.1937   1.1937   1.5964
     1.5964   1.7677   2.1539   6.5295   6.5295

          k = 0.0000 0.2500 0.0000 (  5966 PWs)   bands (ev):

  -117.4902 -71.6579 -71.6579 -71.6579  -5.5417   1.0625   1.1194   1.1194
     1.5507   1.5773   6.3155   6.9803   6.9803

          k =-0.1250 0.3750-0.1250 (  5962 PWs)   bands (ev):

  -117.4902 -71.6580 -71.6579 -71.6579  -5.3026   1.0730   1.1672   1.1685
     1.5434   1.5871   5.0417   6.6081   6.6804

          k =-0.2500 0.5000-0.2500 (  5973 PWs)   bands (ev):

  -117.4902 -71.6580 -71.6579 -71.6579  -4.9709   1.1524   1.2097   1.2710
     1.5690   1.5988   3.5721   6.2662   6.3411

          k = 0.6250-0.3750 0.6250 (  5958 PWs)   bands (ev):

  -117.4902 -71.6581 -71.6580 -71.6579  -4.7447   1.1917   1.2246   1.5169
     1.5992   1.7284   2.4480   5.9172   6.3040

          k = 0.5000-0.2500 0.5000 (  5961 PWs)   bands (ev):

  -117.4902 -71.6581 -71.6580 -71.6579  -4.7970   1.1964   1.2129   1.4723
     1.5756   1.6378   2.7585   5.7960   6.5110

          k = 0.3750-0.1250 0.3750 (  5977 PWs)   bands (ev):

  -117.4902 -71.6580 -71.6579 -71.6579  -5.0845   1.1694   1.1756   1.2026
     1.5519   1.5964   4.0366   5.9839   6.8669

          k = 0.2500 0.0000 0.2500 (  5961 PWs)   bands (ev):

  -117.4902 -71.6580 -71.6579 -71.6579  -5.4027   1.0908   1.1269   1.1441
     1.5516   1.5780   5.4059   6.5426   7.1818

          k = 0.0000 0.5000 0.0000 (  5982 PWs)   bands (ev):

  -117.4902 -71.6580 -71.6579 -71.6579  -5.1412   1.0367   1.2247   1.2247
     1.5289   1.6030   4.8259   6.1670   6.1670

          k =-0.1250 0.6250-0.1250 (  5961 PWs)   bands (ev):

  -117.4902 -71.6580 -71.6580 -71.6580  -4.8700   1.0785   1.2810   1.2945
     1.5657   1.6145   3.8963   5.6468   5.8535

          k = 0.7500-0.2500 0.7500 (  5973 PWs)   bands (ev):

  -117.4902 -71.6581 -71.6580 -71.6580  -4.6425   1.1651   1.3028   1.4152
     1.6090   1.7314   2.9492   5.0201   5.8131

          k = 0.6250-0.1250 0.6250 (  5954 PWs)   bands (ev):

  -117.4902 -71.6580 -71.6580 -71.6580  -4.6164   1.1966   1.2854   1.5174
     1.5788   1.7906   2.7428   4.6583   6.0645

          k = 0.5000 0.0000 0.5000 (  5975 PWs)   bands (ev):

  -117.4902 -71.6580 -71.6580 -71.6579  -4.8097   1.2027   1.2347   1.3619
     1.5524   1.6279   3.4618   4.9104   6.4928

          k = 0.0000 0.7500 0.0000 (  5950 PWs)   bands (ev):

  -117.4902 -71.6581 -71.6580 -71.6580  -4.6865   1.0473   1.3539   1.3539
     1.6045   1.6288   3.5305   5.4691   5.4691

          k = 0.8750-0.1250 0.8750 (  5953 PWs)   bands (ev):

  -117.4902 -71.6581 -71.6580 -71.6580  -4.5288   1.0977   1.3841   1.4036
     1.6271   1.7590   3.0206   4.9272   5.3712

          k = 0.7500 0.0000 0.7500 (  5936 PWs)   bands (ev):

  -117.4902 -71.6580 -71.6580 -71.6580  -4.5009   1.1652   1.3572   1.4671
     1.6008   1.9067   2.8105   4.3189   5.6052

          k = 0.0000-1.0000 0.0000 (  5962 PWs)   bands (ev):

  -117.4902 -71.6581 -71.6580 -71.6580  -4.4777   1.0610   1.4170   1.4170
     1.6395   1.7810   2.8622   5.1971   5.1971

          k =-0.2500 0.5000 0.0000 (  5975 PWs)   bands (ev):

  -117.4902 -71.6580 -71.6580 -71.6579  -5.0451   1.1073   1.2112   1.2383
     1.5456   1.6037   4.2652   5.7067   6.4956

          k = 0.6250-0.3750 0.8750 (  5963 PWs)   bands (ev):

  -117.4902 -71.6580 -71.6580 -71.6579  -4.7611   1.1914   1.2415   1.3844
     1.5844   1.6401   3.2311   5.1887   6.1336

          k = 0.5000-0.2500 0.7500 (  5936 PWs)   bands (ev):

  -117.4902 -71.6581 -71.6580 -71.6580  -4.6341   1.2066   1.2622   1.5164
     1.5792   1.8328   2.5560   5.0705   5.9466

          k = 0.7500-0.2500 1.0000 (  5968 PWs)   bands (ev):

  -117.4902 -71.6580 -71.6580 -71.6580  -4.6509   1.1302   1.3111   1.3848
     1.6119   1.6693   3.3352   5.0596   5.5022

          k = 0.6250-0.1250 0.8750 (  5945 PWs)   bands (ev):

  -117.4902 -71.6580 -71.6580 -71.6580  -4.5222   1.1919   1.3308   1.4738
     1.5821   1.8747   2.8569   4.5444   5.3473

          k = 0.5000 0.0000 0.7500 (  5951 PWs)   bands (ev):

  -117.4902 -71.6580 -71.6580 -71.6580  -4.5711   1.2134   1.2942   1.5064
     1.5623   1.8030   2.9480   4.4373   5.6611

          k =-0.2500-1.0000 0.0000 (  5946 PWs)   bands (ev):

  -117.4902 -71.6581 -71.6580 -71.6580  -4.4749   1.1354   1.3828   1.4359
     1.6124   1.8706   2.8533   4.9291   4.9417

          k =-0.5000-1.0000 0.0000 (  5940 PWs)   bands (ev):

  -117.4902 -71.6580 -71.6580 -71.6580  -4.4720   1.2127   1.3571   1.5109
     1.5316   1.9580   2.8423   4.6822   4.7051

     highest occupied level (ev):     7.3807

!    total energy              =    -420.90405591 Ry
     estimated scf accuracy    <          2.4E-09 Ry

     The total energy is the sum of the following terms:
     one-electron contribution =    -339.00584300 Ry
     hartree contribution      =     173.06286054 Ry
     xc contribution           =     -40.99923695 Ry
     ewald contribution        =    -213.96183651 Ry

     convergence has been achieved in  12 iterations

     Writing all to output data dir ./SCRATCH/zns.save/

     init_run     :      1.52s CPU      1.62s WALL (       1 calls)
     electrons    :     65.88s CPU     66.44s WALL (       1 calls)

     Called by init_run:
     wfcinit      :      1.39s CPU      1.44s WALL (       1 calls)
     potinit      :      0.06s CPU      0.09s WALL (       1 calls)
     hinit0       :      0.03s CPU      0.05s WALL (       1 calls)

     Called by electrons:
     c_bands      :     58.22s CPU     58.54s WALL (      12 calls)
     sum_band     :      7.05s CPU      7.08s WALL (      12 calls)
     v_of_rho     :      0.58s CPU      0.79s WALL (      13 calls)
     mix_rho      :      0.06s CPU      0.09s WALL (      12 calls)

     Called by c_bands:
     init_us_2    :      0.77s CPU      0.89s WALL (     725 calls)
     init_us_2:cp :      0.77s CPU      0.89s WALL (     725 calls)
     cegterg      :     56.92s CPU     57.09s WALL (     348 calls)

     Called by *egterg:
     cdiaghg      :      0.22s CPU      0.20s WALL (    1506 calls)
     h_psi        :     49.66s CPU     49.90s WALL (    1535 calls)
     g_psi        :      0.17s CPU      0.18s WALL (    1158 calls)

     Called by h_psi:
     h_psi:calbec :      3.06s CPU      2.61s WALL (    1535 calls)
     vloc_psi     :     44.86s CPU     45.30s WALL (    1535 calls)
     add_vuspsi   :      1.62s CPU      1.84s WALL (    1535 calls)

     General routines
     calbec       :      3.05s CPU      2.61s WALL (    1535 calls)
     fft          :      0.25s CPU      0.27s WALL (     129 calls)
     ffts         :      0.02s CPU      0.03s WALL (      12 calls)
     fftw         :     47.77s CPU     47.70s WALL (   35758 calls)


     PWSCF        :   1m 7.41s CPU   1m 8.11s WALL


   This run was terminated on:  10:29:57   8Jun2024            

=------------------------------------------------------------------------------=
   JOB DONE.
=------------------------------------------------------------------------------=
