
     Program PWSCF v.7.2 starts on  9Jun2024 at  9:51:46 

     This program is part of the open-source Quantum ESPRESSO suite
     for quantum simulation of materials; please cite
         "P. Giannozzi et al., J. Phys.:Condens. Matter 21 395502 (2009);
         "P. Giannozzi et al., J. Phys.:Condens. Matter 29 465901 (2017);
         "P. Giannozzi et al., J. Chem. Phys. 152 154105 (2020);
          URL http://www.quantum-espresso.org", 
     in publications or presentations arising from this work. More details at
     http://www.quantum-espresso.org/quote

     Serial version
     9935 MiB available memory on the printing compute node when the environment starts

     Waiting for input...
     Reading input from standard input

     Current dimensions of program PWSCF are:
     Max number of different atomic species (ntypx) = 10
     Max number of k-points (npk) =  40000
     Max angular momentum in pseudopotentials (lmaxx) =  4


     G-vector sticks info
     --------------------
     sticks:   dense  smooth     PW     G-vecs:    dense   smooth      PW
     Sum         955     955    283                19195    19195    3143

     Using Slab Decomposition



     bravais-lattice index     =            2
     lattice parameter (alat)  =      10.6829  a.u.
     unit-cell volume          =     304.7951 (a.u.)^3
     number of atoms/cell      =            2
     number of atomic types    =            2
     number of electrons       =        18.00
     number of Kohn-Sham states=            9
     kinetic-energy cutoff     =      60.0000  Ry
     charge density cutoff     =     240.0000  Ry
     scf convergence threshold =      1.0E-08
     mixing beta               =       0.7000
     number of iterations used =            8  plain     mixing
     Exchange-correlation= PBE
                           (   1   4   3   4   0   0   0)

     celldm(1)=  10.682904  celldm(2)=   0.000000  celldm(3)=   0.000000
     celldm(4)=   0.000000  celldm(5)=   0.000000  celldm(6)=   0.000000

     crystal axes: (cart. coord. in units of alat)
               a(1) = (  -0.500000   0.000000   0.500000 )  
               a(2) = (   0.000000   0.500000   0.500000 )  
               a(3) = (  -0.500000   0.500000   0.000000 )  

     reciprocal axes: (cart. coord. in units 2 pi/alat)
               b(1) = ( -1.000000 -1.000000  1.000000 )  
               b(2) = (  1.000000  1.000000  1.000000 )  
               b(3) = ( -1.000000  1.000000 -1.000000 )  


     PseudoPot. # 1 for Ga read from file:
     /home/paolo/project_labqsm/pseudopotentials/Ga_ONCV_PBE-1.2.upf
     MD5 check sum: 9961a622ff199abf6dfec9a0a10b8555
     Pseudo is Norm-conserving, Zval = 13.0
     Generated using ONCVPSP code by D. R. Hamann
     Using radial grid of  602 points,  6 beta functions with: 
                l(1) =   0
                l(2) =   0
                l(3) =   1
                l(4) =   1
                l(5) =   2
                l(6) =   2

     PseudoPot. # 2 for As read from file:
     /home/paolo/project_labqsm/pseudopotentials/As_ONCV_PBE-1.2.upf
     MD5 check sum: a2ff92a4799c87c945fff9e6739df4dd
     Pseudo is Norm-conserving, Zval =  5.0
     Generated using ONCVPSP code by D. R. Hamann
     Using radial grid of  602 points,  6 beta functions with: 
                l(1) =   0
                l(2) =   0
                l(3) =   1
                l(4) =   1
                l(5) =   2
                l(6) =   2

     atomic species   valence    mass     pseudopotential
        Ga            13.00    69.72300     Ga( 1.00)
        As             5.00    74.92200     As( 1.00)

     24 Sym. Ops. (no inversion) found



   Cartesian axes

     site n.     atom                  positions (alat units)
         1           Ga  tau(   1) = (   0.0000000   0.0000000   0.0000000  )
         2           As  tau(   2) = (   0.2500000   0.2500000   0.2500000  )

     number of k points=    72
                       cart. coord. in units 2pi/alat
        k(    1) = (   0.0000000   0.0000000   0.0000000), wk =   0.0011574
        k(    2) = (  -0.0833333   0.0833333  -0.0833333), wk =   0.0092593
        k(    3) = (  -0.1666667   0.1666667  -0.1666667), wk =   0.0092593
        k(    4) = (  -0.2500000   0.2500000  -0.2500000), wk =   0.0092593
        k(    5) = (  -0.3333333   0.3333333  -0.3333333), wk =   0.0092593
        k(    6) = (  -0.4166667   0.4166667  -0.4166667), wk =   0.0092593
        k(    7) = (   0.5000000  -0.5000000   0.5000000), wk =   0.0046296
        k(    8) = (   0.0000000   0.1666667   0.0000000), wk =   0.0069444
        k(    9) = (  -0.0833333   0.2500000  -0.0833333), wk =   0.0277778
        k(   10) = (  -0.1666667   0.3333333  -0.1666667), wk =   0.0277778
        k(   11) = (  -0.2500000   0.4166667  -0.2500000), wk =   0.0277778
        k(   12) = (  -0.3333333   0.5000000  -0.3333333), wk =   0.0277778
        k(   13) = (   0.5833333  -0.4166667   0.5833333), wk =   0.0277778
        k(   14) = (   0.5000000  -0.3333333   0.5000000), wk =   0.0277778
        k(   15) = (   0.4166667  -0.2500000   0.4166667), wk =   0.0277778
        k(   16) = (   0.3333333  -0.1666667   0.3333333), wk =   0.0277778
        k(   17) = (   0.2500000  -0.0833333   0.2500000), wk =   0.0277778
        k(   18) = (   0.1666667  -0.0000000   0.1666667), wk =   0.0138889
        k(   19) = (   0.0000000   0.3333333   0.0000000), wk =   0.0069444
        k(   20) = (  -0.0833333   0.4166667  -0.0833333), wk =   0.0277778
        k(   21) = (  -0.1666667   0.5000000  -0.1666667), wk =   0.0277778
        k(   22) = (  -0.2500000   0.5833333  -0.2500000), wk =   0.0277778
        k(   23) = (   0.6666667  -0.3333333   0.6666667), wk =   0.0277778
        k(   24) = (   0.5833333  -0.2500000   0.5833333), wk =   0.0277778
        k(   25) = (   0.5000000  -0.1666667   0.5000000), wk =   0.0277778
        k(   26) = (   0.4166667  -0.0833333   0.4166667), wk =   0.0277778
        k(   27) = (   0.3333333   0.0000000   0.3333333), wk =   0.0138889
        k(   28) = (   0.0000000   0.5000000   0.0000000), wk =   0.0069444
        k(   29) = (  -0.0833333   0.5833333  -0.0833333), wk =   0.0277778
        k(   30) = (  -0.1666667   0.6666667  -0.1666667), wk =   0.0277778
        k(   31) = (   0.7500000  -0.2500000   0.7500000), wk =   0.0277778
        k(   32) = (   0.6666667  -0.1666667   0.6666667), wk =   0.0277778
        k(   33) = (   0.5833333  -0.0833333   0.5833333), wk =   0.0277778
        k(   34) = (   0.5000000   0.0000000   0.5000000), wk =   0.0138889
        k(   35) = (   0.0000000   0.6666667   0.0000000), wk =   0.0069444
        k(   36) = (  -0.0833333   0.7500000  -0.0833333), wk =   0.0277778
        k(   37) = (   0.8333333  -0.1666667   0.8333333), wk =   0.0277778
        k(   38) = (   0.7500000  -0.0833333   0.7500000), wk =   0.0277778
        k(   39) = (   0.6666667  -0.0000000   0.6666667), wk =   0.0138889
        k(   40) = (   0.0000000   0.8333333   0.0000000), wk =   0.0069444
        k(   41) = (   0.9166667  -0.0833333   0.9166667), wk =   0.0277778
        k(   42) = (   0.8333333   0.0000000   0.8333333), wk =   0.0138889
        k(   43) = (   0.0000000  -1.0000000   0.0000000), wk =   0.0034722
        k(   44) = (  -0.1666667   0.3333333   0.0000000), wk =   0.0277778
        k(   45) = (  -0.2500000   0.4166667  -0.0833333), wk =   0.0555556
        k(   46) = (  -0.3333333   0.5000000  -0.1666667), wk =   0.0555556
        k(   47) = (   0.5833333  -0.4166667   0.7500000), wk =   0.0555556
        k(   48) = (   0.5000000  -0.3333333   0.6666667), wk =   0.0277778
        k(   49) = (  -0.1666667   0.5000000   0.0000000), wk =   0.0277778
        k(   50) = (  -0.2500000   0.5833333  -0.0833333), wk =   0.0555556
        k(   51) = (   0.6666667  -0.3333333   0.8333333), wk =   0.0555556
        k(   52) = (   0.5833333  -0.2500000   0.7500000), wk =   0.0555556
        k(   53) = (   0.5000000  -0.1666667   0.6666667), wk =   0.0555556
        k(   54) = (   0.4166667  -0.0833333   0.5833333), wk =   0.0555556
        k(   55) = (   0.3333333   0.0000000   0.5000000), wk =   0.0277778
        k(   56) = (  -0.1666667   0.6666667  -0.0000000), wk =   0.0277778
        k(   57) = (   0.7500000  -0.2500000   0.9166667), wk =   0.0555556
        k(   58) = (   0.6666667  -0.1666667   0.8333333), wk =   0.0555556
        k(   59) = (   0.5833333  -0.0833333   0.7500000), wk =   0.0555556
        k(   60) = (   0.5000000   0.0000000   0.6666667), wk =   0.0277778
        k(   61) = (   0.8333333  -0.1666667   1.0000000), wk =   0.0277778
        k(   62) = (   0.7500000  -0.0833333   0.9166667), wk =   0.0555556
        k(   63) = (   0.6666667   0.0000000   0.8333333), wk =   0.0277778
        k(   64) = (  -0.1666667  -1.0000000  -0.0000000), wk =   0.0138889
        k(   65) = (   0.6666667  -0.3333333   1.0000000), wk =   0.0277778
        k(   66) = (   0.5833333  -0.2500000   0.9166667), wk =   0.0555556
        k(   67) = (   0.5000000  -0.1666667   0.8333333), wk =   0.0277778
        k(   68) = (   0.6666667  -0.1666667   1.0000000), wk =   0.0277778
        k(   69) = (   0.5833333  -0.0833333   0.9166667), wk =   0.0555556
        k(   70) = (   0.5000000   0.0000000   0.8333333), wk =   0.0277778
        k(   71) = (  -0.3333333  -1.0000000   0.0000000), wk =   0.0138889
        k(   72) = (  -0.5000000  -1.0000000   0.0000000), wk =   0.0069444

     Dense  grid:    19195 G-vectors     FFT dimensions: (  40,  40,  40)

     Estimated max dynamical RAM per process >      42.08 MB

     Initial potential from superposition of free atoms

     starting charge      17.8922, renormalised to      18.0000

     negative rho (up, down):  2.423E-06 0.000E+00
     Starting wfcs are random

     total cpu time spent up to now is        1.1 secs

     Self-consistent Calculation

     iteration #  1     ecut=    60.00 Ry     beta= 0.70
     Davidson diagonalization with overlap
     ethr =  1.00E-02,  avg # of iterations = 15.3

     Threshold (ethr) on eigenvalues was too large:
     Diagonalizing with lowered threshold

     Davidson diagonalization with overlap
     ethr =  4.15E-04,  avg # of iterations =  2.2

     negative rho (up, down):  7.083E-07 0.000E+00

     total cpu time spent up to now is       15.9 secs

     total energy              =    -144.00025196 Ry
     estimated scf accuracy    <       0.07138264 Ry

     iteration #  2     ecut=    60.00 Ry     beta= 0.70
     Davidson diagonalization with overlap
     ethr =  3.97E-04,  avg # of iterations =  2.9

     negative rho (up, down):  2.637E-07 0.000E+00

     total cpu time spent up to now is       19.4 secs

     total energy              =    -144.02021351 Ry
     estimated scf accuracy    <       0.01214934 Ry

     iteration #  3     ecut=    60.00 Ry     beta= 0.70
     Davidson diagonalization with overlap
     ethr =  6.75E-05,  avg # of iterations =  2.1

     total cpu time spent up to now is       22.1 secs

     total energy              =    -144.02177221 Ry
     estimated scf accuracy    <       0.00055083 Ry

     iteration #  4     ecut=    60.00 Ry     beta= 0.70
     Davidson diagonalization with overlap
     ethr =  3.06E-06,  avg # of iterations =  4.6

     total cpu time spent up to now is       25.7 secs

     total energy              =    -144.02192524 Ry
     estimated scf accuracy    <       0.00021764 Ry

     iteration #  5     ecut=    60.00 Ry     beta= 0.70
     Davidson diagonalization with overlap
     ethr =  1.21E-06,  avg # of iterations =  2.5

     total cpu time spent up to now is       28.7 secs

     total energy              =    -144.02196635 Ry
     estimated scf accuracy    <       0.00000167 Ry

     iteration #  6     ecut=    60.00 Ry     beta= 0.70
     Davidson diagonalization with overlap
     ethr =  9.31E-09,  avg # of iterations =  4.5

     total cpu time spent up to now is       32.6 secs

     total energy              =    -144.02196863 Ry
     estimated scf accuracy    <       0.00000019 Ry

     iteration #  7     ecut=    60.00 Ry     beta= 0.70
     Davidson diagonalization with overlap
     ethr =  1.07E-09,  avg # of iterations =  3.0

     total cpu time spent up to now is       35.5 secs

     total energy              =    -144.02196869 Ry
     estimated scf accuracy    <       0.00000002 Ry

     iteration #  8     ecut=    60.00 Ry     beta= 0.70
     Davidson diagonalization with overlap
     ethr =  1.25E-10,  avg # of iterations =  2.1

     total cpu time spent up to now is       38.6 secs

     End of self-consistent calculation

          k = 0.0000 0.0000 0.0000 (  2421 PWs)   bands (ev):

    -7.5893  -7.5893  -7.5893  -7.5097  -7.5097  -5.5116   7.2067   7.2067
     7.2067

          k =-0.0833 0.0833-0.0833 (  2391 PWs)   bands (ev):

    -7.5950  -7.5872  -7.5872  -7.5094  -7.5094  -5.4298   5.9933   7.0937
     7.0937

          k =-0.1667 0.1667-0.1667 (  2397 PWs)   bands (ev):

    -7.6116  -7.5829  -7.5829  -7.5094  -7.5094  -5.1916   4.4958   6.8270
     6.8270

          k =-0.2500 0.2500-0.2500 (  2406 PWs)   bands (ev):

    -7.6319  -7.5778  -7.5778  -7.5092  -7.5092  -4.8201   3.0704   6.5298
     6.5298

          k =-0.3333 0.3333-0.3333 (  2406 PWs)   bands (ev):

    -7.6508  -7.5733  -7.5733  -7.5081  -7.5081  -4.3656   1.8319   6.2818
     6.2818

          k =-0.4167 0.4167-0.4167 (  2401 PWs)   bands (ev):

    -7.6637  -7.5705  -7.5705  -7.5067  -7.5067  -3.9398   0.9250   6.1220
     6.1220

          k = 0.5000-0.5000 0.5000 (  2392 PWs)   bands (ev):

    -7.6682  -7.5696  -7.5696  -7.5060  -7.5060  -3.7498   0.5730   6.0672
     6.0672

          k = 0.0000 0.1667 0.0000 (  2389 PWs)   bands (ev):

    -7.5990  -7.5855  -7.5855  -7.5105  -7.5087  -5.4026   5.9429   6.8749
     6.8749

          k =-0.0833 0.2500-0.0833 (  2393 PWs)   bands (ev):

    -7.6119  -7.5822  -7.5813  -7.5120  -7.5076  -5.2164   4.8174   6.5538
     6.6379

          k =-0.1667 0.3333-0.1667 (  2401 PWs)   bands (ev):

    -7.6300  -7.5779  -7.5761  -7.5126  -7.5070  -4.8884   3.4683   6.2479
     6.3142

          k =-0.2500 0.4167-0.2500 (  2399 PWs)   bands (ev):

    -7.6483  -7.5736  -7.5714  -7.5121  -7.5060  -4.4571   2.2074   5.9632
     6.0238

          k =-0.3333 0.5000-0.3333 (  2401 PWs)   bands (ev):

    -7.6623  -7.5704  -7.5685  -7.5102  -7.5055  -4.0081   1.1975   5.6702
     5.9115

          k = 0.5833-0.4167 0.5833 (  2396 PWs)   bands (ev):

    -7.6690  -7.5688  -7.5676  -7.5080  -7.5057  -3.7170   0.6468   5.4766
     5.9205

          k = 0.5000-0.3333 0.5000 (  2396 PWs)   bands (ev):

    -7.6673  -7.5687  -7.5685  -7.5072  -7.5069  -3.7824   0.7655   5.4036
     6.0469

          k = 0.4167-0.2500 0.4167 (  2403 PWs)   bands (ev):

    -7.6579  -7.5711  -7.5703  -7.5096  -7.5068  -4.1523   1.4984   5.4631
     6.2744

          k = 0.3333-0.1667 0.3333 (  2399 PWs)   bands (ev):

    -7.6416  -7.5755  -7.5734  -7.5112  -7.5074  -4.6096   2.6082   5.6624
     6.5713

          k = 0.2500-0.0833 0.2500 (  2406 PWs)   bands (ev):

    -7.6226  -7.5809  -7.5782  -7.5114  -7.5082  -5.0125   3.8985   6.0082
     6.8780

          k = 0.1667-0.0000 0.1667 (  2389 PWs)   bands (ev):

    -7.6049  -7.5855  -7.5832  -7.5103  -7.5087  -5.2958   5.1545   6.5243
     7.0914

          k = 0.0000 0.3333 0.0000 (  2405 PWs)   bands (ev):

    -7.6234  -7.5770  -7.5770  -7.5151  -7.5062  -5.0849   4.4992   6.1955
     6.1955

          k =-0.0833 0.4167-0.0833 (  2393 PWs)   bands (ev):

    -7.6386  -7.5721  -7.5712  -7.5170  -7.5047  -4.8080   3.5654   5.8148
     5.8692

          k =-0.1667 0.5000-0.1667 (  2386 PWs)   bands (ev):

    -7.6538  -7.5685  -7.5661  -7.5176  -7.5037  -4.4153   2.4713   5.3485
     5.6395

          k =-0.2500 0.5833-0.2500 (  2390 PWs)   bands (ev):

    -7.6659  -7.5663  -7.5627  -7.5163  -7.5035  -3.9723   1.4832   4.9073
     5.5366

          k = 0.6667-0.3333 0.6667 (  2390 PWs)   bands (ev):

    -7.6726  -7.5655  -7.5615  -7.5134  -7.5046  -3.6191   0.8224   4.5730
     5.5698

          k = 0.5833-0.2500 0.5833 (  2386 PWs)   bands (ev):

    -7.6725  -7.5657  -7.5624  -7.5105  -7.5069  -3.5618   0.7271   4.3853
     5.7337

          k = 0.5000-0.1667 0.5000 (  2397 PWs)   bands (ev):

    -7.6661  -7.5669  -7.5654  -7.5101  -7.5086  -3.8446   1.2391   4.3749
     6.0076

          k = 0.4167-0.0833 0.4167 (  2388 PWs)   bands (ev):

    -7.6538  -7.5700  -7.5692  -7.5121  -7.5074  -4.2785   2.1239   4.5883
     6.3493

          k = 0.3333 0.0000 0.3333 (  2391 PWs)   bands (ev):

    -7.6381  -7.5759  -7.5729  -7.5124  -7.5076  -4.6955   3.0914   5.1159
     6.6809

          k = 0.0000 0.5000 0.0000 (  2413 PWs)   bands (ev):

    -7.6524  -7.5653  -7.5653  -7.5213  -7.5032  -4.5851   3.1196   5.5183
     5.5183

          k =-0.0833 0.5833-0.0833 (  2395 PWs)   bands (ev):

    -7.6653  -7.5602  -7.5594  -7.5236  -7.5016  -4.2421   2.3528   5.0832
     5.2658

          k =-0.1667 0.6667-0.1667 (  2392 PWs)   bands (ev):

    -7.6750  -7.5585  -7.5554  -7.5233  -7.5013  -3.8307   1.5557   4.4961
     5.1456

          k = 0.7500-0.2500 0.7500 (  2395 PWs)   bands (ev):

    -7.6799  -7.5591  -7.5540  -7.5206  -7.5027  -3.4613   0.9399   3.9740
     5.1701

          k = 0.6667-0.1667 0.6667 (  2382 PWs)   bands (ev):

    -7.6794  -7.5608  -7.5548  -7.5165  -7.5055  -3.3156   0.7270   3.6361
     5.3359

          k = 0.5833-0.0833 0.5833 (  2375 PWs)   bands (ev):

    -7.6742  -7.5631  -7.5580  -7.5123  -7.5088  -3.4958   1.0074   3.5586
     5.6232

          k = 0.5000 0.0000 0.5000 (  2385 PWs)   bands (ev):

    -7.6652  -7.5658  -7.5636  -7.5115  -7.5093  -3.8743   1.5676   3.8453
     5.9885

          k = 0.0000 0.6667 0.0000 (  2397 PWs)   bands (ev):

    -7.6774  -7.5529  -7.5529  -7.5282  -7.5001  -3.9553   1.8550   4.9835
     4.9835

          k =-0.0833 0.7500-0.0833 (  2397 PWs)   bands (ev):

    -7.6859  -7.5497  -7.5485  -7.5295  -7.4993  -3.5993   1.2669   4.5633
     4.8329

          k = 0.8333-0.1667 0.8333 (  2398 PWs)   bands (ev):

    -7.6893  -7.5509  -7.5468  -7.5274  -7.5001  -3.2659   0.8048   3.9372
     4.8304

          k = 0.7500-0.0833 0.7500 (  2379 PWs)   bands (ev):

    -7.6874  -7.5544  -7.5477  -7.5229  -7.5028  -3.1010   0.6248   3.4235
     4.9761

          k = 0.6667-0.0000 0.6667 (  2381 PWs)   bands (ev):

    -7.6819  -7.5588  -7.5518  -7.5176  -7.5063  -3.2019   0.7559   3.2409
     5.2534

          k = 0.0000 0.8333 0.0000 (  2394 PWs)   bands (ev):

    -7.6940  -7.5437  -7.5437  -7.5329  -7.4977  -3.3227   0.8357   4.6467
     4.6467

          k = 0.9167-0.0833 0.9167 (  2397 PWs)   bands (ev):

    -7.6969  -7.5436  -7.5420  -7.5325  -7.4979  -3.0876   0.5277   4.2965
     4.6086

          k = 0.8333 0.0000 0.8333 (  2390 PWs)   bands (ev):

    -7.6942  -7.5480  -7.5434  -7.5286  -7.4998  -3.0021   0.4792   3.7453
     4.7226

          k = 0.0000-1.0000 0.0000 (  2402 PWs)   bands (ev):

    -7.6998  -7.5404  -7.5404  -7.5350  -7.4967  -3.0117   0.3943   4.5320
     4.5320

          k =-0.1667 0.3333 0.0000 (  2394 PWs)   bands (ev):

    -7.6263  -7.5781  -7.5761  -7.5137  -7.5066  -4.9850   3.9866   5.8265
     6.5474

          k =-0.2500 0.4167-0.0833 (  2398 PWs)   bands (ev):

    -7.6430  -7.5735  -7.5710  -7.5146  -7.5058  -4.6238   2.8982   5.2755
     6.2997

          k =-0.3333 0.5000-0.1667 (  2397 PWs)   bands (ev):

    -7.6582  -7.5697  -7.5669  -7.5137  -7.5054  -4.1828   1.8194   4.9437
     6.0041

          k = 0.5833-0.4167 0.7500 (  2396 PWs)   bands (ev):

    -7.6684  -7.5676  -7.5644  -7.5116  -7.5057  -3.7714   0.9907   4.7706
     5.7818

          k = 0.5000-0.3333 0.6667 (  2392 PWs)   bands (ev):

    -7.6720  -7.5670  -7.5634  -7.5101  -7.5062  -3.5889   0.6643   4.7177
     5.7000

          k =-0.1667 0.5000 0.0000 (  2393 PWs)   bands (ev):

    -7.6527  -7.5671  -7.5655  -7.5194  -7.5035  -4.4976   2.8219   5.1517
     5.7305

          k =-0.2500 0.5833-0.0833 (  2397 PWs)   bands (ev):

    -7.6652  -7.5642  -7.5606  -7.5199  -7.5030  -4.0923   1.9595   4.6144
     5.4763

          k = 0.6667-0.3333 0.8333 (  2392 PWs)   bands (ev):

    -7.6736  -7.5632  -7.5575  -7.5180  -7.5036  -3.6767   1.1870   4.2265
     5.2896

          k = 0.5833-0.2500 0.7500 (  2387 PWs)   bands (ev):

    -7.6770  -7.5634  -7.5565  -7.5152  -7.5054  -3.4155   0.7540   3.9757
     5.2712

          k = 0.5000-0.1667 0.6667 (  2390 PWs)   bands (ev):

    -7.6749  -7.5644  -7.5577  -7.5135  -7.5070  -3.4812   0.8646   3.8863
     5.4257

          k = 0.4167-0.0833 0.5833 (  2395 PWs)   bands (ev):

    -7.6678  -7.5660  -7.5611  -7.5146  -7.5065  -3.8229   1.4435   4.0159
     5.7120

          k = 0.3333 0.0000 0.5000 (  2395 PWs)   bands (ev):

    -7.6566  -7.5689  -7.5659  -7.5154  -7.5057  -4.2476   2.2032   4.4584
     6.0508

          k =-0.1667 0.6667-0.0000 (  2397 PWs)   bands (ev):

    -7.6761  -7.5563  -7.5539  -7.5257  -7.5007  -3.8885   1.7268   4.6403
     5.0217

          k = 0.7500-0.2500 0.9167 (  2387 PWs)   bands (ev):

    -7.6825  -7.5556  -7.5504  -7.5245  -7.5012  -3.5050   1.1337   4.1102
     4.8295

          k = 0.6667-0.1667 0.8333 (  2382 PWs)   bands (ev):

    -7.6842  -7.5574  -7.5493  -7.5213  -7.5033  -3.2230   0.7507   3.6338
     4.8325

          k = 0.5833-0.0833 0.7500 (  2381 PWs)   bands (ev):

    -7.6817  -7.5601  -7.5509  -7.5175  -7.5062  -3.2014   0.7371   3.3776
     5.0152

          k = 0.5000 0.0000 0.6667 (  2386 PWs)   bands (ev):

    -7.6759  -7.5630  -7.5551  -7.5150  -7.5077  -3.4511   1.0461   3.4721
     5.3337

          k = 0.8333-0.1667 1.0000 (  2389 PWs)   bands (ev):

    -7.6915  -7.5478  -7.5452  -7.5298  -7.4989  -3.2867   0.8273   4.3484
     4.5381

          k = 0.7500-0.0833 0.9167 (  2388 PWs)   bands (ev):

    -7.6920  -7.5503  -7.5445  -7.5270  -7.5006  -3.0590   0.5760   3.8281
     4.4973

          k = 0.6667 0.0000 0.8333 (  2378 PWs)   bands (ev):

    -7.6879  -7.5549  -7.5463  -7.5225  -7.5036  -3.0286   0.5846   3.3967
     4.6838

          k =-0.1667-1.0000-0.0000 (  2392 PWs)   bands (ev):

    -7.6969  -7.5446  -7.5423  -7.5311  -7.4983  -2.9975   0.4368   4.2867
     4.3355

          k = 0.6667-0.3333 1.0000 (  2391 PWs)   bands (ev):

    -7.6742  -7.5620  -7.5553  -7.5200  -7.5035  -3.7043   1.4091   3.9994
     5.1594

          k = 0.5833-0.2500 0.9167 (  2397 PWs)   bands (ev):

    -7.6798  -7.5615  -7.5515  -7.5186  -7.5052  -3.3525   0.9243   3.6556
     4.8664

          k = 0.5000-0.1667 0.8333 (  2384 PWs)   bands (ev):

    -7.6815  -7.5613  -7.5503  -7.5175  -7.5060  -3.2009   0.7189   3.5514
     4.7524

          k = 0.6667-0.1667 1.0000 (  2386 PWs)   bands (ev):

    -7.6862  -7.5559  -7.5469  -7.5233  -7.5026  -3.1966   0.7882   3.8045
     4.4052

          k = 0.5833-0.0833 0.9167 (  2389 PWs)   bands (ev):

    -7.6864  -7.5577  -7.5460  -7.5210  -7.5048  -3.0297   0.6264   3.5346
     4.2675

          k = 0.5000 0.0000 0.8333 (  2392 PWs)   bands (ev):

    -7.6840  -7.5598  -7.5475  -7.5190  -7.5060  -3.0965   0.7023   3.4243
     4.4692

          k =-0.3333-1.0000 0.0000 (  2402 PWs)   bands (ev):

    -7.6907  -7.5534  -7.5443  -7.5246  -7.5026  -2.9687   0.5296   3.8643
     4.0081

          k =-0.5000-1.0000 0.0000 (  2400 PWs)   bands (ev):

    -7.6870  -7.5581  -7.5449  -7.5206  -7.5058  -2.9540   0.5807   3.6736
     3.8665

     highest occupied level (ev):     7.2067

!    total energy              =    -144.02196869 Ry
     estimated scf accuracy    <          1.3E-09 Ry

     The total energy is the sum of the following terms:
     one-electron contribution =     -82.66093088 Ry
     hartree contribution      =      52.90810109 Ry
     xc contribution           =     -21.24996782 Ry
     ewald contribution        =     -93.01917108 Ry

     convergence has been achieved in   8 iterations

     Writing all to output data dir ./SCRATCH/gallium_arsenide.save/

     init_run     :      0.98s CPU      1.05s WALL (       1 calls)
     electrons    :     37.14s CPU     37.58s WALL (       1 calls)

     Called by init_run:
     wfcinit      :      0.92s CPU      0.94s WALL (       1 calls)
     potinit      :      0.03s CPU      0.04s WALL (       1 calls)
     hinit0       :      0.03s CPU      0.04s WALL (       1 calls)

     Called by electrons:
     c_bands      :     33.64s CPU     34.01s WALL (       9 calls)
     sum_band     :      3.36s CPU      3.36s WALL (       9 calls)
     v_of_rho     :      0.16s CPU      0.22s WALL (       9 calls)
     mix_rho      :      0.00s CPU      0.02s WALL (       9 calls)

     Called by c_bands:
     init_us_2    :      0.77s CPU      0.76s WALL (    1368 calls)
     init_us_2:cp :      0.77s CPU      0.75s WALL (    1368 calls)
     cegterg      :     32.14s CPU     32.40s WALL (     648 calls)

     Called by *egterg:
     cdiaghg      :      0.25s CPU      0.22s WALL (    3394 calls)
     h_psi        :     28.38s CPU     29.00s WALL (    3538 calls)
     g_psi        :      0.06s CPU      0.12s WALL (    2818 calls)

     Called by h_psi:
     h_psi:calbec :      2.16s CPU      2.26s WALL (    3538 calls)
     vloc_psi     :     24.55s CPU     25.01s WALL (    3538 calls)
     add_vuspsi   :      1.58s CPU      1.61s WALL (    3538 calls)

     General routines
     calbec       :      2.14s CPU      2.24s WALL (    3538 calls)
     fft          :      0.08s CPU      0.07s WALL (      90 calls)
     ffts         :      0.03s CPU      0.01s WALL (       9 calls)
     fftw         :     24.77s CPU     25.51s WALL (   54738 calls)


     PWSCF        :     38.17s CPU     38.69s WALL


   This run was terminated on:   9:52:25   9Jun2024            

=------------------------------------------------------------------------------=
   JOB DONE.
=------------------------------------------------------------------------------=
