
     Program BANDS v.7.2 starts on 15Jun2024 at 10:44:33 

     This program is part of the open-source Quantum ESPRESSO suite
     for quantum simulation of materials; please cite
         "P. Giannozzi et al., J. Phys.:Condens. Matter 21 395502 (2009);
         "P. Giannozzi et al., J. Phys.:Condens. Matter 29 465901 (2017);
         "P. Giannozzi et al., J. Chem. Phys. 152 154105 (2020);
          URL http://www.quantum-espresso.org", 
     in publications or presentations arising from this work. More details at
     http://www.quantum-espresso.org/quote

     Serial version
     8681 MiB available memory on the printing compute node when the environment starts


     Reading xml data from directory:

     ./SCRATCH/zns_w.save/

     IMPORTANT: XC functional enforced from input :
     Exchange-correlation= PBE
                           (   1   4   3   4   0   0   0)
     Any further DFT definition will be discarded
     Please, verify this is what you really want


     G-vector sticks info
     --------------------
     sticks:   dense  smooth     PW     G-vecs:    dense   smooth      PW
     Sum         313     313     97                 7547     7547    1317

     Using Slab Decomposition

     Reading collected, re-writing distributed wavefunctions
     high-symmetry point:  0.3333 0.5774 0.0000   x coordinate   0.0000
     high-symmetry point:  0.0000 0.0000 0.0000   x coordinate   0.6667
     high-symmetry point:  0.5000 0.2887 0.0000   x coordinate   1.2440
     high-symmetry point:  0.0000 0.0000 0.0000   x coordinate   1.8214

     Plottable bands (eV) written to file bands_zns_w_2.dat.gnu
     Bands written to file bands_zns_w_2.dat

 **************************************************************************

                    xk=(   0.33333,   0.57735,   0.00000  )

     point group C_3 (3)    
     there are  3 classes
     the character table:

       E     C3    C3^2 
A      1.00  1.00  1.00
E      1.00 -0.50 -0.50
E*     1.00 -0.50 -0.50
     imaginary part
A      0.00  0.00  0.00
E      0.00  0.87 -0.87
E*     0.00 -0.87  0.87

     the symmetry operations in each class and the name of the first element:

     E        1
                                                                 
     C3       2
                                                                 
     C3^2     3
                                                                 

     Band symmetry, C_3 (3)     point group:

     e(  1 -  1) =    -81.49921  eV     1   --> E*             
     e(  2 -  2) =    -72.54976  eV     1   --> A              
     e(  3 -  3) =    -41.51994  eV     1   --> A              
     e(  4 -  4) =    -41.50396  eV     1   --> E              
     e(  5 -  5) =    -36.14484  eV     1   --> E*             
     e(  6 -  6) =    -30.91502  eV     1   --> E              
     e(  7 -  7) =    -30.38815  eV     1   --> E*             
     e(  8 -  8) =    -24.98692  eV     1   --> A              
     e(  9 -  9) =     23.91840  eV     1   --> A              
     e( 10 - 10) =     24.33812  eV     1   --> E              
     e( 11 - 11) =     28.16533  eV     1   --> E              
     e( 12 - 12) =     30.71752  eV     1   --> A              
     e( 13 - 13) =     35.50071  eV     1   --> E*             
     e( 14 - 14) =     37.65904  eV     1   --> E*             
     e( 15 - 15) =     37.80997  eV     1   --> E              
     e( 16 - 16) =     43.63352  eV     1   --> E*             
     e( 17 - 17) =     44.02738  eV     1   --> E              
     e( 18 - 18) =     48.90625  eV     1   --> A              
     e( 19 - 19) =     50.21818  eV     1   --> E              
     e( 20 - 20) =     50.82011  eV     1   --> A              
     e( 21 - 21) =     57.35423  eV     1   --> E*             
     e( 22 - 22) =     64.37029  eV     1   --> E              
     e( 23 - 23) =     67.45743  eV     1   --> E*             
     e( 24 - 24) =     69.41437  eV     1   --> E              
     e( 25 - 25) =     71.24866  eV     1   --> E*             
     e( 26 - 26) =     71.74149  eV     1   --> A              
     e( 27 - 27) =     73.61103  eV     1   --> A              
     e( 28 - 28) =     84.86072  eV     1   --> E*             
     e( 29 - 29) =     92.41353  eV     1   --> A              
     e( 30 - 30) =     92.45698  eV     1   --> E              

 **************************************************************************

 **************************************************************************

                    xk=(   0.32500,   0.56292,   0.00000  )

     point group C_1 (1)    
     there are  1 classes
     the character table:

       E    
A      1.00

     the symmetry operations in each class and the name of the first element:

     E        1
                                                                 

     Band symmetry, C_1 (1)     point group:

     e(  1 -  1) =    -81.49935  eV     1   --> A              
     e(  2 -  2) =    -72.54988  eV     1   --> A              
     e(  3 -  3) =    -41.52678  eV     1   --> A              
     e(  4 -  4) =    -41.49670  eV     1   --> A              
     e(  5 -  5) =    -36.14456  eV     1   --> A              
     e(  6 -  6) =    -30.91414  eV     1   --> A              
     e(  7 -  7) =    -30.38868  eV     1   --> A              
     e(  8 -  8) =    -24.98697  eV     1   --> A              
     e(  9 -  9) =     23.91383  eV     1   --> A              
     e( 10 - 10) =     24.34346  eV     1   --> A              
     e( 11 - 11) =     28.16153  eV     1   --> A              
     e( 12 - 12) =     30.72034  eV     1   --> A              
     e( 13 - 13) =     35.49891  eV     1   --> A              
     e( 14 - 14) =     37.65884  eV     1   --> A              
     e( 15 - 15) =     37.81151  eV     1   --> A              
     e( 16 - 16) =     43.60649  eV     1   --> A              
     e( 17 - 17) =     44.03815  eV     1   --> A              
     e( 18 - 18) =     48.88369  eV     1   --> A              
     e( 19 - 19) =     50.05871  eV     1   --> A              
     e( 20 - 20) =     51.01754  eV     1   --> A              
     e( 21 - 21) =     57.36187  eV     1   --> A              
     e( 22 - 22) =     64.32810  eV     1   --> A              
     e( 23 - 23) =     67.49799  eV     1   --> A              
     e( 24 - 24) =     69.33819  eV     1   --> A              
     e( 25 - 25) =     71.27375  eV     1   --> A              
     e( 26 - 26) =     71.80239  eV     1   --> A              
     e( 27 - 27) =     73.64979  eV     1   --> A              
     e( 28 - 28) =     84.85300  eV     1   --> A              
     e( 29 - 29) =     92.12156  eV     1   --> A              
     e( 30 - 30) =     92.66641  eV     1   --> A              

 **************************************************************************

 **************************************************************************

                    xk=(   0.31667,   0.54848,   0.00000  )

     Band symmetry, C_1 (1)     point group:

     e(  1 -  1) =    -81.50007  eV     1   --> A              
     e(  2 -  2) =    -72.55051  eV     1   --> A              
     e(  3 -  3) =    -41.53730  eV     1   --> A              
     e(  4 -  4) =    -41.48495  eV     1   --> A              
     e(  5 -  5) =    -36.14405  eV     1   --> A              
     e(  6 -  6) =    -30.91153  eV     1   --> A              
     e(  7 -  7) =    -30.39025  eV     1   --> A              
     e(  8 -  8) =    -24.98770  eV     1   --> A              
     e(  9 -  9) =     23.90147  eV     1   --> A              
     e( 10 - 10) =     24.35814  eV     1   --> A              
     e( 11 - 11) =     28.15156  eV     1   --> A              
     e( 12 - 12) =     30.72690  eV     1   --> A              
     e( 13 - 13) =     35.49178  eV     1   --> A              
     e( 14 - 14) =     37.65703  eV     1   --> A              
     e( 15 - 15) =     37.81584  eV     1   --> A              
     e( 16 - 16) =     43.54710  eV     1   --> A              
     e( 17 - 17) =     44.04591  eV     1   --> A              
     e( 18 - 18) =     48.80734  eV     1   --> A              
     e( 19 - 19) =     49.81122  eV     1   --> A              
     e( 20 - 20) =     51.39020  eV     1   --> A              
     e( 21 - 21) =     57.38302  eV     1   --> A              
     e( 22 - 22) =     64.20701  eV     1   --> A              
     e( 23 - 23) =     67.61546  eV     1   --> A              
     e( 24 - 24) =     69.12744  eV     1   --> A              
     e( 25 - 25) =     71.38128  eV     1   --> A              
     e( 26 - 26) =     71.94651  eV     1   --> A              
     e( 27 - 27) =     73.75407  eV     1   --> A              
     e( 28 - 28) =     84.83072  eV     1   --> A              
     e( 29 - 29) =     91.78623  eV     1   --> A              
     e( 30 - 30) =     92.72744  eV     1   --> A              

 **************************************************************************

 **************************************************************************

                    xk=(   0.30833,   0.53405,   0.00000  )

     Band symmetry, C_1 (1)     point group:

     e(  1 -  1) =    -81.50102  eV     1   --> A              
     e(  2 -  2) =    -72.55137  eV     1   --> A              
     e(  3 -  3) =    -41.54782  eV     1   --> A              
     e(  4 -  4) =    -41.47270  eV     1   --> A              
     e(  5 -  5) =    -36.14308  eV     1   --> A              
     e(  6 -  6) =    -30.90751  eV     1   --> A              
     e(  7 -  7) =    -30.39326  eV     1   --> A              
     e(  8 -  8) =    -24.98905  eV     1   --> A              
     e(  9 -  9) =     23.88261  eV     1   --> A              
     e( 10 - 10) =     24.37954  eV     1   --> A              
     e( 11 - 11) =     28.13736  eV     1   --> A              
     e( 12 - 12) =     30.73434  eV     1   --> A              
     e( 13 - 13) =     35.47746  eV     1   --> A              
     e( 14 - 14) =     37.65200  eV     1   --> A              
     e( 15 - 15) =     37.82186  eV     1   --> A              
     e( 16 - 16) =     43.47534  eV     1   --> A              
     e( 17 - 17) =     44.02699  eV     1   --> A              
     e( 18 - 18) =     48.67292  eV     1   --> A              
     e( 19 - 19) =     49.60886  eV     1   --> A              
     e( 20 - 20) =     51.81484  eV     1   --> A              
     e( 21 - 21) =     57.41670  eV     1   --> A              
     e( 22 - 22) =     64.02356  eV     1   --> A              
     e( 23 - 23) =     67.78290  eV     1   --> A              
     e( 24 - 24) =     68.85055  eV     1   --> A              
     e( 25 - 25) =     71.55230  eV     1   --> A              
     e( 26 - 26) =     72.14960  eV     1   --> A              
     e( 27 - 27) =     73.91125  eV     1   --> A              
     e( 28 - 28) =     84.79423  eV     1   --> A              
     e( 29 - 29) =     91.43631  eV     1   --> A              
     e( 30 - 30) =     92.61916  eV     1   --> A              

 **************************************************************************

 **************************************************************************

                    xk=(   0.30000,   0.51962,   0.00000  )

     Band symmetry, C_1 (1)     point group:

     e(  1 -  1) =    -81.50234  eV     1   --> A              
     e(  2 -  2) =    -72.55264  eV     1   --> A              
     e(  3 -  3) =    -41.55688  eV     1   --> A              
     e(  4 -  4) =    -41.46007  eV     1   --> A              
     e(  5 -  5) =    -36.14112  eV     1   --> A              
     e(  6 -  6) =    -30.90146  eV     1   --> A              
     e(  7 -  7) =    -30.39639  eV     1   --> A              
     e(  8 -  8) =    -24.98987  eV     1   --> A              
     e(  9 -  9) =     23.86307  eV     1   --> A              
     e( 10 - 10) =     24.40682  eV     1   --> A              
     e( 11 - 11) =     28.12140  eV     1   --> A              
     e( 12 - 12) =     30.74042  eV     1   --> A              
     e( 13 - 13) =     35.46065  eV     1   --> A              
     e( 14 - 14) =     37.64452  eV     1   --> A              
     e( 15 - 15) =     37.83156  eV     1   --> A              
     e( 16 - 16) =     43.39935  eV     1   --> A              
     e( 17 - 17) =     43.97327  eV     1   --> A              
     e( 18 - 18) =     48.49724  eV     1   --> A              
     e( 19 - 19) =     49.46628  eV     1   --> A              
     e( 20 - 20) =     52.26869  eV     1   --> A              
     e( 21 - 21) =     57.46290  eV     1   --> A              
     e( 22 - 22) =     63.79975  eV     1   --> A              
     e( 23 - 23) =     67.91727  eV     1   --> A              
     e( 24 - 24) =     68.62647  eV     1   --> A              
     e( 25 - 25) =     71.74613  eV     1   --> A              
     e( 26 - 26) =     72.41042  eV     1   --> A              
     e( 27 - 27) =     74.11276  eV     1   --> A              
     e( 28 - 28) =     84.74735  eV     1   --> A              
     e( 29 - 29) =     91.08171  eV     1   --> A              
     e( 30 - 30) =     92.40024  eV     1   --> A              

 **************************************************************************

 **************************************************************************

                    xk=(   0.29167,   0.50518,   0.00000  )

     Band symmetry, C_1 (1)     point group:

     e(  1 -  1) =    -81.50375  eV     1   --> A              
     e(  2 -  2) =    -72.55386  eV     1   --> A              
     e(  3 -  3) =    -41.56485  eV     1   --> A              
     e(  4 -  4) =    -41.44784  eV     1   --> A              
     e(  5 -  5) =    -36.13801  eV     1   --> A              
     e(  6 -  6) =    -30.89407  eV     1   --> A              
     e(  7 -  7) =    -30.40063  eV     1   --> A              
     e(  8 -  8) =    -24.99054  eV     1   --> A              
     e(  9 -  9) =     23.84161  eV     1   --> A              
     e( 10 - 10) =     24.43615  eV     1   --> A              
     e( 11 - 11) =     28.10517  eV     1   --> A              
     e( 12 - 12) =     30.74264  eV     1   --> A              
     e( 13 - 13) =     35.43667  eV     1   --> A              
     e( 14 - 14) =     37.63015  eV     1   --> A              
     e( 15 - 15) =     37.84197  eV     1   --> A              
     e( 16 - 16) =     43.31907  eV     1   --> A              
     e( 17 - 17) =     43.88616  eV     1   --> A              
     e( 18 - 18) =     48.30611  eV     1   --> A              
     e( 19 - 19) =     49.36200  eV     1   --> A              
     e( 20 - 20) =     52.74355  eV     1   --> A              
     e( 21 - 21) =     57.52259  eV     1   --> A              
     e( 22 - 22) =     63.55239  eV     1   --> A              
     e( 23 - 23) =     67.82260  eV     1   --> A              
     e( 24 - 24) =     68.66543  eV     1   --> A              
     e( 25 - 25) =     71.94122  eV     1   --> A              
     e( 26 - 26) =     72.72422  eV     1   --> A              
     e( 27 - 27) =     74.35437  eV     1   --> A              
     e( 28 - 28) =     84.69052  eV     1   --> A              
     e( 29 - 29) =     90.72341  eV     1   --> A              
     e( 30 - 30) =     92.11630  eV     1   --> A              

 **************************************************************************

 **************************************************************************

                    xk=(   0.28333,   0.49075,   0.00000  )

     Band symmetry, C_1 (1)     point group:

     e(  1 -  1) =    -81.50559  eV     1   --> A              
     e(  2 -  2) =    -72.55558  eV     1   --> A              
     e(  3 -  3) =    -41.57172  eV     1   --> A              
     e(  4 -  4) =    -41.43618  eV     1   --> A              
     e(  5 -  5) =    -36.13476  eV     1   --> A              
     e(  6 -  6) =    -30.88543  eV     1   --> A              
     e(  7 -  7) =    -30.40588  eV     1   --> A              
     e(  8 -  8) =    -24.99201  eV     1   --> A              
     e(  9 -  9) =     23.81994  eV     1   --> A              
     e( 10 - 10) =     24.46557  eV     1   --> A              
     e( 11 - 11) =     28.08990  eV     1   --> A              
     e( 12 - 12) =     30.73926  eV     1   --> A              
     e( 13 - 13) =     35.40128  eV     1   --> A              
     e( 14 - 14) =     37.60702  eV     1   --> A              
     e( 15 - 15) =     37.85226  eV     1   --> A              
     e( 16 - 16) =     43.22925  eV     1   --> A              
     e( 17 - 17) =     43.77474  eV     1   --> A              
     e( 18 - 18) =     48.12000  eV     1   --> A              
     e( 19 - 19) =     49.27235  eV     1   --> A              
     e( 20 - 20) =     53.23567  eV     1   --> A              
     e( 21 - 21) =     57.59567  eV     1   --> A              
     e( 22 - 22) =     63.29592  eV     1   --> A              
     e( 23 - 23) =     67.54461  eV     1   --> A              
     e( 24 - 24) =     68.92778  eV     1   --> A              
     e( 25 - 25) =     72.13233  eV     1   --> A              
     e( 26 - 26) =     73.08032  eV     1   --> A              
     e( 27 - 27) =     74.63051  eV     1   --> A              
     e( 28 - 28) =     84.62152  eV     1   --> A              
     e( 29 - 29) =     90.36184  eV     1   --> A              
     e( 30 - 30) =     91.79482  eV     1   --> A              

 **************************************************************************

 **************************************************************************

                    xk=(   0.27500,   0.47631,   0.00000  )

     Band symmetry, C_1 (1)     point group:

     e(  1 -  1) =    -81.50768  eV     1   --> A              
     e(  2 -  2) =    -72.55739  eV     1   --> A              
     e(  3 -  3) =    -41.57703  eV     1   --> A              
     e(  4 -  4) =    -41.42453  eV     1   --> A              
     e(  5 -  5) =    -36.13007  eV     1   --> A              
     e(  6 -  6) =    -30.87533  eV     1   --> A              
     e(  7 -  7) =    -30.41155  eV     1   --> A              
     e(  8 -  8) =    -24.99317  eV     1   --> A              
     e(  9 -  9) =     23.80090  eV     1   --> A              
     e( 10 - 10) =     24.49651  eV     1   --> A              
     e( 11 - 11) =     28.07731  eV     1   --> A              
     e( 12 - 12) =     30.72982  eV     1   --> A              
     e( 13 - 13) =     35.35704  eV     1   --> A              
     e( 14 - 14) =     37.57380  eV     1   --> A              
     e( 15 - 15) =     37.86511  eV     1   --> A              
     e( 16 - 16) =     43.12458  eV     1   --> A              
     e( 17 - 17) =     43.65704  eV     1   --> A              
     e( 18 - 18) =     47.94818  eV     1   --> A              
     e( 19 - 19) =     49.18638  eV     1   --> A              
     e( 20 - 20) =     53.74266  eV     1   --> A              
     e( 21 - 21) =     57.68348  eV     1   --> A              
     e( 22 - 22) =     63.04181  eV     1   --> A              
     e( 23 - 23) =     67.23183  eV     1   --> A              
     e( 24 - 24) =     69.26848  eV     1   --> A              
     e( 25 - 25) =     72.32212  eV     1   --> A              
     e( 26 - 26) =     73.46933  eV     1   --> A              
     e( 27 - 27) =     74.93829  eV     1   --> A              
     e( 28 - 28) =     84.54679  eV     1   --> A              
     e( 29 - 29) =     90.00262  eV     1   --> A              
     e( 30 - 30) =     91.45332  eV     1   --> A              

 **************************************************************************

 **************************************************************************

                    xk=(   0.26667,   0.46188,   0.00000  )

     Band symmetry, C_1 (1)     point group:

     e(  1 -  1) =    -81.51011  eV     1   --> A              
     e(  2 -  2) =    -72.55951  eV     1   --> A              
     e(  3 -  3) =    -41.58039  eV     1   --> A              
     e(  4 -  4) =    -41.41325  eV     1   --> A              
     e(  5 -  5) =    -36.12345  eV     1   --> A              
     e(  6 -  6) =    -30.86372  eV     1   --> A              
     e(  7 -  7) =    -30.41753  eV     1   --> A              
     e(  8 -  8) =    -24.99359  eV     1   --> A              
     e(  9 -  9) =     23.78597  eV     1   --> A              
     e( 10 - 10) =     24.52733  eV     1   --> A              
     e( 11 - 11) =     28.06859  eV     1   --> A              
     e( 12 - 12) =     30.71345  eV     1   --> A              
     e( 13 - 13) =     35.30141  eV     1   --> A              
     e( 14 - 14) =     37.53215  eV     1   --> A              
     e( 15 - 15) =     37.87872  eV     1   --> A              
     e( 16 - 16) =     42.99501  eV     1   --> A              
     e( 17 - 17) =     43.55156  eV     1   --> A              
     e( 18 - 18) =     47.79185  eV     1   --> A              
     e( 19 - 19) =     49.09988  eV     1   --> A              
     e( 20 - 20) =     54.26183  eV     1   --> A              
     e( 21 - 21) =     57.78642  eV     1   --> A              
     e( 22 - 22) =     62.79851  eV     1   --> A              
     e( 23 - 23) =     66.92898  eV     1   --> A              
     e( 24 - 24) =     69.64438  eV     1   --> A              
     e( 25 - 25) =     72.51606  eV     1   --> A              
     e( 26 - 26) =     73.88367  eV     1   --> A              
     e( 27 - 27) =     75.27468  eV     1   --> A              
     e( 28 - 28) =     84.46591  eV     1   --> A              
     e( 29 - 29) =     89.64575  eV     1   --> A              
     e( 30 - 30) =     91.10493  eV     1   --> A              

 **************************************************************************

 **************************************************************************

                    xk=(   0.25833,   0.44745,   0.00000  )

     Band symmetry, C_1 (1)     point group:

     e(  1 -  1) =    -81.51295  eV     1   --> A              
     e(  2 -  2) =    -72.56197  eV     1   --> A              
     e(  3 -  3) =    -41.58263  eV     1   --> A              
     e(  4 -  4) =    -41.40241  eV     1   --> A              
     e(  5 -  5) =    -36.11671  eV     1   --> A              
     e(  6 -  6) =    -30.85126  eV     1   --> A              
     e(  7 -  7) =    -30.42413  eV     1   --> A              
     e(  8 -  8) =    -24.99495  eV     1   --> A              
     e(  9 -  9) =     23.77321  eV     1   --> A              
     e( 10 - 10) =     24.55712  eV     1   --> A              
     e( 11 - 11) =     28.06416  eV     1   --> A              
     e( 12 - 12) =     30.68951  eV     1   --> A              
     e( 13 - 13) =     35.22783  eV     1   --> A              
     e( 14 - 14) =     37.47625  eV     1   --> A              
     e( 15 - 15) =     37.89232  eV     1   --> A              
     e( 16 - 16) =     42.83830  eV     1   --> A              
     e( 17 - 17) =     43.47058  eV     1   --> A              
     e( 18 - 18) =     47.64461  eV     1   --> A              
     e( 19 - 19) =     49.00336  eV     1   --> A              
     e( 20 - 20) =     54.78997  eV     1   --> A              
     e( 21 - 21) =     57.90242  eV     1   --> A              
     e( 22 - 22) =     62.57125  eV     1   --> A              
     e( 23 - 23) =     66.64828  eV     1   --> A              
     e( 24 - 24) =     70.04051  eV     1   --> A              
     e( 25 - 25) =     72.71617  eV     1   --> A              
     e( 26 - 26) =     74.31784  eV     1   --> A              
     e( 27 - 27) =     75.63450  eV     1   --> A              
     e( 28 - 28) =     84.37875  eV     1   --> A              
     e( 29 - 29) =     89.28958  eV     1   --> A              
     e( 30 - 30) =     90.75620  eV     1   --> A              

 **************************************************************************

 **************************************************************************

                    xk=(   0.25000,   0.43301,   0.00000  )

     Band symmetry, C_1 (1)     point group:

     e(  1 -  1) =    -81.51612  eV     1   --> A              
     e(  2 -  2) =    -72.56473  eV     1   --> A              
     e(  3 -  3) =    -41.58320  eV     1   --> A              
     e(  4 -  4) =    -41.39170  eV     1   --> A              
     e(  5 -  5) =    -36.10852  eV     1   --> A              
     e(  6 -  6) =    -30.83757  eV     1   --> A              
     e(  7 -  7) =    -30.43081  eV     1   --> A              
     e(  8 -  8) =    -24.99584  eV     1   --> A              
     e(  9 -  9) =     23.76465  eV     1   --> A              
     e( 10 - 10) =     24.58701  eV     1   --> A              
     e( 11 - 11) =     28.06458  eV     1   --> A              
     e( 12 - 12) =     30.65837  eV     1   --> A              
     e( 13 - 13) =     35.13574  eV     1   --> A              
     e( 14 - 14) =     37.41112  eV     1   --> A              
     e( 15 - 15) =     37.90776  eV     1   --> A              
     e( 16 - 16) =     42.66291  eV     1   --> A              
     e( 17 - 17) =     43.41545  eV     1   --> A              
     e( 18 - 18) =     47.50130  eV     1   --> A              
     e( 19 - 19) =     48.90245  eV     1   --> A              
     e( 20 - 20) =     55.32455  eV     1   --> A              
     e( 21 - 21) =     58.02990  eV     1   --> A              
     e( 22 - 22) =     62.36815  eV     1   --> A              
     e( 23 - 23) =     66.39826  eV     1   --> A              
     e( 24 - 24) =     70.45097  eV     1   --> A              
     e( 25 - 25) =     72.92659  eV     1   --> A              
     e( 26 - 26) =     74.76896  eV     1   --> A              
     e( 27 - 27) =     76.01475  eV     1   --> A              
     e( 28 - 28) =     84.28863  eV     1   --> A              
     e( 29 - 29) =     88.93414  eV     1   --> A              
     e( 30 - 30) =     90.41506  eV     1   --> A              

 **************************************************************************

 **************************************************************************

                    xk=(   0.24167,   0.41858,   0.00000  )

     Band symmetry, C_1 (1)     point group:

     e(  1 -  1) =    -81.51968  eV     1   --> A              
     e(  2 -  2) =    -72.56782  eV     1   --> A              
     e(  3 -  3) =    -41.58250  eV     1   --> A              
     e(  4 -  4) =    -41.38186  eV     1   --> A              
     e(  5 -  5) =    -36.10028  eV     1   --> A              
     e(  6 -  6) =    -30.82338  eV     1   --> A              
     e(  7 -  7) =    -30.43806  eV     1   --> A              
     e(  8 -  8) =    -24.99790  eV     1   --> A              
     e(  9 -  9) =     23.75957  eV     1   --> A              
     e( 10 - 10) =     24.61400  eV     1   --> A              
     e( 11 - 11) =     28.07010  eV     1   --> A              
     e( 12 - 12) =     30.61976  eV     1   --> A              
     e( 13 - 13) =     35.01774  eV     1   --> A              
     e( 14 - 14) =     37.33685  eV     1   --> A              
     e( 15 - 15) =     37.92138  eV     1   --> A              
     e( 16 - 16) =     42.47881  eV     1   --> A              
     e( 17 - 17) =     43.37968  eV     1   --> A              
     e( 18 - 18) =     47.35347  eV     1   --> A              
     e( 19 - 19) =     48.79445  eV     1   --> A              
     e( 20 - 20) =     55.86104  eV     1   --> A              
     e( 21 - 21) =     58.16438  eV     1   --> A              
     e( 22 - 22) =     62.19437  eV     1   --> A              
     e( 23 - 23) =     66.18208  eV     1   --> A              
     e( 24 - 24) =     70.86938  eV     1   --> A              
     e( 25 - 25) =     73.14914  eV     1   --> A              
     e( 26 - 26) =     75.23424  eV     1   --> A              
     e( 27 - 27) =     76.41078  eV     1   --> A              
     e( 28 - 28) =     84.19668  eV     1   --> A              
     e( 29 - 29) =     88.57782  eV     1   --> A              
     e( 30 - 30) =     90.08503  eV     1   --> A              

 **************************************************************************

 **************************************************************************

                    xk=(   0.23333,   0.40415,   0.00000  )

     Band symmetry, C_1 (1)     point group:

     e(  1 -  1) =    -81.52351  eV     1   --> A              
     e(  2 -  2) =    -72.57117  eV     1   --> A              
     e(  3 -  3) =    -41.57975  eV     1   --> A              
     e(  4 -  4) =    -41.37240  eV     1   --> A              
     e(  5 -  5) =    -36.09022  eV     1   --> A              
     e(  6 -  6) =    -30.80815  eV     1   --> A              
     e(  7 -  7) =    -30.44517  eV     1   --> A              
     e(  8 -  8) =    -24.99910  eV     1   --> A              
     e(  9 -  9) =     23.76069  eV     1   --> A              
     e( 10 - 10) =     24.63974  eV     1   --> A              
     e( 11 - 11) =     28.08100  eV     1   --> A              
     e( 12 - 12) =     30.57442  eV     1   --> A              
     e( 13 - 13) =     34.87380  eV     1   --> A              
     e( 14 - 14) =     37.26346  eV     1   --> A              
     e( 15 - 15) =     37.93505  eV     1   --> A              
     e( 16 - 16) =     42.29576  eV     1   --> A              
     e( 17 - 17) =     43.35969  eV     1   --> A              
     e( 18 - 18) =     47.20026  eV     1   --> A              
     e( 19 - 19) =     48.68761  eV     1   --> A              
     e( 20 - 20) =     56.39602  eV     1   --> A              
     e( 21 - 21) =     58.30106  eV     1   --> A              
     e( 22 - 22) =     62.06049  eV     1   --> A              
     e( 23 - 23) =     66.00578  eV     1   --> A              
     e( 24 - 24) =     71.29299  eV     1   --> A              
     e( 25 - 25) =     73.38849  eV     1   --> A              
     e( 26 - 26) =     75.71205  eV     1   --> A              
     e( 27 - 27) =     76.81845  eV     1   --> A              
     e( 28 - 28) =     84.10707  eV     1   --> A              
     e( 29 - 29) =     88.22085  eV     1   --> A              
     e( 30 - 30) =     89.77491  eV     1   --> A              

 **************************************************************************

 **************************************************************************

                    xk=(   0.22500,   0.38971,   0.00000  )

     Band symmetry, C_1 (1)     point group:

     e(  1 -  1) =    -81.52782  eV     1   --> A              
     e(  2 -  2) =    -72.57493  eV     1   --> A              
     e(  3 -  3) =    -41.57581  eV     1   --> A              
     e(  4 -  4) =    -41.36377  eV     1   --> A              
     e(  5 -  5) =    -36.07983  eV     1   --> A              
     e(  6 -  6) =    -30.79263  eV     1   --> A              
     e(  7 -  7) =    -30.45269  eV     1   --> A              
     e(  8 -  8) =    -25.00134  eV     1   --> A              
     e(  9 -  9) =     23.76516  eV     1   --> A              
     e( 10 - 10) =     24.66292  eV     1   --> A              
     e( 11 - 11) =     28.09698  eV     1   --> A              
     e( 12 - 12) =     30.52232  eV     1   --> A              
     e( 13 - 13) =     34.69809  eV     1   --> A              
     e( 14 - 14) =     37.18991  eV     1   --> A              
     e( 15 - 15) =     37.94658  eV     1   --> A              
     e( 16 - 16) =     42.11712  eV     1   --> A              
     e( 17 - 17) =     43.35101  eV     1   --> A              
     e( 18 - 18) =     47.03662  eV     1   --> A              
     e( 19 - 19) =     48.57752  eV     1   --> A              
     e( 20 - 20) =     56.92033  eV     1   --> A              
     e( 21 - 21) =     58.43293  eV     1   --> A              
     e( 22 - 22) =     61.97312  eV     1   --> A              
     e( 23 - 23) =     65.87143  eV     1   --> A              
     e( 24 - 24) =     71.71623  eV     1   --> A              
     e( 25 - 25) =     73.64771  eV     1   --> A              
     e( 26 - 26) =     76.20049  eV     1   --> A              
     e( 27 - 27) =     77.23170  eV     1   --> A              
     e( 28 - 28) =     84.02258  eV     1   --> A              
     e( 29 - 29) =     87.86122  eV     1   --> A              
     e( 30 - 30) =     89.48408  eV     1   --> A              

 **************************************************************************

 **************************************************************************

                    xk=(   0.21667,   0.37528,   0.00000  )

     Band symmetry, C_1 (1)     point group:

     e(  1 -  1) =    -81.53259  eV     1   --> A              
     e(  2 -  2) =    -72.57909  eV     1   --> A              
     e(  3 -  3) =    -41.57056  eV     1   --> A              
     e(  4 -  4) =    -41.35573  eV     1   --> A              
     e(  5 -  5) =    -36.06929  eV     1   --> A              
     e(  6 -  6) =    -30.77698  eV     1   --> A              
     e(  7 -  7) =    -30.46079  eV     1   --> A              
     e(  8 -  8) =    -25.00506  eV     1   --> A              
     e(  9 -  9) =     23.77344  eV     1   --> A              
     e( 10 - 10) =     24.68382  eV     1   --> A              
     e( 11 - 11) =     28.11828  eV     1   --> A              
     e( 12 - 12) =     30.46438  eV     1   --> A              
     e( 13 - 13) =     34.48718  eV     1   --> A              
     e( 14 - 14) =     37.12341  eV     1   --> A              
     e( 15 - 15) =     37.95847  eV     1   --> A              
     e( 16 - 16) =     41.94363  eV     1   --> A              
     e( 17 - 17) =     43.35094  eV     1   --> A              
     e( 18 - 18) =     46.86097  eV     1   --> A              
     e( 19 - 19) =     48.46544  eV     1   --> A              
     e( 20 - 20) =     57.42438  eV     1   --> A              
     e( 21 - 21) =     58.55407  eV     1   --> A              
     e( 22 - 22) =     61.94419  eV     1   --> A              
     e( 23 - 23) =     65.78180  eV     1   --> A              
     e( 24 - 24) =     72.13396  eV     1   --> A              
     e( 25 - 25) =     73.92934  eV     1   --> A              
     e( 26 - 26) =     76.69712  eV     1   --> A              
     e( 27 - 27) =     77.64495  eV     1   --> A              
     e( 28 - 28) =     83.94927  eV     1   --> A              
     e( 29 - 29) =     87.50087  eV     1   --> A              
     e( 30 - 30) =     89.21269  eV     1   --> A              

 **************************************************************************

 **************************************************************************

                    xk=(   0.20833,   0.36084,   0.00000  )

     Band symmetry, C_1 (1)     point group:

     e(  1 -  1) =    -81.53740  eV     1   --> A              
     e(  2 -  2) =    -72.58325  eV     1   --> A              
     e(  3 -  3) =    -41.56364  eV     1   --> A              
     e(  4 -  4) =    -41.34806  eV     1   --> A              
     e(  5 -  5) =    -36.05693  eV     1   --> A              
     e(  6 -  6) =    -30.76065  eV     1   --> A              
     e(  7 -  7) =    -30.46811  eV     1   --> A              
     e(  8 -  8) =    -25.00737  eV     1   --> A              
     e(  9 -  9) =     23.78789  eV     1   --> A              
     e( 10 - 10) =     24.70400  eV     1   --> A              
     e( 11 - 11) =     28.14460  eV     1   --> A              
     e( 12 - 12) =     30.40177  eV     1   --> A              
     e( 13 - 13) =     34.25082  eV     1   --> A              
     e( 14 - 14) =     37.06658  eV     1   --> A              
     e( 15 - 15) =     37.96973  eV     1   --> A              
     e( 16 - 16) =     41.77664  eV     1   --> A              
     e( 17 - 17) =     43.35921  eV     1   --> A              
     e( 18 - 18) =     46.67820  eV     1   --> A              
     e( 19 - 19) =     48.35756  eV     1   --> A              
     e( 20 - 20) =     57.89303  eV     1   --> A              
     e( 21 - 21) =     58.66293  eV     1   --> A              
     e( 22 - 22) =     61.98766  eV     1   --> A              
     e( 23 - 23) =     65.74376  eV     1   --> A              
     e( 24 - 24) =     72.54385  eV     1   --> A              
     e( 25 - 25) =     74.24170  eV     1   --> A              
     e( 26 - 26) =     77.20111  eV     1   --> A              
     e( 27 - 27) =     78.05155  eV     1   --> A              
     e( 28 - 28) =     83.89416  eV     1   --> A              
     e( 29 - 29) =     87.14224  eV     1   --> A              
     e( 30 - 30) =     88.96814  eV     1   --> A              

 **************************************************************************

 **************************************************************************

                    xk=(   0.20000,   0.34641,   0.00000  )

     Band symmetry, C_1 (1)     point group:

     e(  1 -  1) =    -81.54248  eV     1   --> A              
     e(  2 -  2) =    -72.58759  eV     1   --> A              
     e(  3 -  3) =    -41.55538  eV     1   --> A              
     e(  4 -  4) =    -41.34103  eV     1   --> A              
     e(  5 -  5) =    -36.04393  eV     1   --> A              
     e(  6 -  6) =    -30.74423  eV     1   --> A              
     e(  7 -  7) =    -30.47531  eV     1   --> A              
     e(  8 -  8) =    -25.01004  eV     1   --> A              
     e(  9 -  9) =     23.80703  eV     1   --> A              
     e( 10 - 10) =     24.72220  eV     1   --> A              
     e( 11 - 11) =     28.17522  eV     1   --> A              
     e( 12 - 12) =     30.33449  eV     1   --> A              
     e( 13 - 13) =     33.98680  eV     1   --> A              
     e( 14 - 14) =     37.02151  eV     1   --> A              
     e( 15 - 15) =     37.97934  eV     1   --> A              
     e( 16 - 16) =     41.61167  eV     1   --> A              
     e( 17 - 17) =     43.37353  eV     1   --> A              
     e( 18 - 18) =     46.48908  eV     1   --> A              
     e( 19 - 19) =     48.24943  eV     1   --> A              
     e( 20 - 20) =     58.28848  eV     1   --> A              
     e( 21 - 21) =     58.77859  eV     1   --> A              
     e( 22 - 22) =     62.11400  eV     1   --> A              
     e( 23 - 23) =     65.75958  eV     1   --> A              
     e( 24 - 24) =     72.94044  eV     1   --> A              
     e( 25 - 25) =     74.58520  eV     1   --> A              
     e( 26 - 26) =     77.70821  eV     1   --> A              
     e( 27 - 27) =     78.44468  eV     1   --> A              
     e( 28 - 28) =     83.86295  eV     1   --> A              
     e( 29 - 29) =     86.78511  eV     1   --> A              
     e( 30 - 30) =     88.74741  eV     1   --> A              

 **************************************************************************

 **************************************************************************

                    xk=(   0.19167,   0.33198,   0.00000  )

     Band symmetry, C_1 (1)     point group:

     e(  1 -  1) =    -81.54809  eV     1   --> A              
     e(  2 -  2) =    -72.59247  eV     1   --> A              
     e(  3 -  3) =    -41.54592  eV     1   --> A              
     e(  4 -  4) =    -41.33458  eV     1   --> A              
     e(  5 -  5) =    -36.03057  eV     1   --> A              
     e(  6 -  6) =    -30.72771  eV     1   --> A              
     e(  7 -  7) =    -30.48219  eV     1   --> A              
     e(  8 -  8) =    -25.01318  eV     1   --> A              
     e(  9 -  9) =     23.83123  eV     1   --> A              
     e( 10 - 10) =     24.73878  eV     1   --> A              
     e( 11 - 11) =     28.21040  eV     1   --> A              
     e( 12 - 12) =     30.26370  eV     1   --> A              
     e( 13 - 13) =     33.69940  eV     1   --> A              
     e( 14 - 14) =     36.98818  eV     1   --> A              
     e( 15 - 15) =     37.98875  eV     1   --> A              
     e( 16 - 16) =     41.44580  eV     1   --> A              
     e( 17 - 17) =     43.39272  eV     1   --> A              
     e( 18 - 18) =     46.29605  eV     1   --> A              
     e( 19 - 19) =     48.14145  eV     1   --> A              
     e( 20 - 20) =     58.52515  eV     1   --> A              
     e( 21 - 21) =     58.97209  eV     1   --> A              
     e( 22 - 22) =     62.33097  eV     1   --> A              
     e( 23 - 23) =     65.83219  eV     1   --> A              
     e( 24 - 24) =     73.32127  eV     1   --> A              
     e( 25 - 25) =     74.96124  eV     1   --> A              
     e( 26 - 26) =     78.21297  eV     1   --> A              
     e( 27 - 27) =     78.81855  eV     1   --> A              
     e( 28 - 28) =     83.86217  eV     1   --> A              
     e( 29 - 29) =     86.43357  eV     1   --> A              
     e( 30 - 30) =     88.55041  eV     1   --> A              

 **************************************************************************

 **************************************************************************

                    xk=(   0.18333,   0.31754,   0.00000  )

     Band symmetry, C_1 (1)     point group:

     e(  1 -  1) =    -81.55360  eV     1   --> A              
     e(  2 -  2) =    -72.59722  eV     1   --> A              
     e(  3 -  3) =    -41.53516  eV     1   --> A              
     e(  4 -  4) =    -41.32863  eV     1   --> A              
     e(  5 -  5) =    -36.01606  eV     1   --> A              
     e(  6 -  6) =    -30.71123  eV     1   --> A              
     e(  7 -  7) =    -30.48871  eV     1   --> A              
     e(  8 -  8) =    -25.01580  eV     1   --> A              
     e(  9 -  9) =     23.86058  eV     1   --> A              
     e( 10 - 10) =     24.75368  eV     1   --> A              
     e( 11 - 11) =     28.24953  eV     1   --> A              
     e( 12 - 12) =     30.18999  eV     1   --> A              
     e( 13 - 13) =     33.39539  eV     1   --> A              
     e( 14 - 14) =     36.96716  eV     1   --> A              
     e( 15 - 15) =     37.99718  eV     1   --> A              
     e( 16 - 16) =     41.27838  eV     1   --> A              
     e( 17 - 17) =     43.41673  eV     1   --> A              
     e( 18 - 18) =     46.10520  eV     1   --> A              
     e( 19 - 19) =     48.03252  eV     1   --> A              
     e( 20 - 20) =     58.59476  eV     1   --> A              
     e( 21 - 21) =     59.24497  eV     1   --> A              
     e( 22 - 22) =     62.64098  eV     1   --> A              
     e( 23 - 23) =     65.96567  eV     1   --> A              
     e( 24 - 24) =     73.68674  eV     1   --> A              
     e( 25 - 25) =     75.36844  eV     1   --> A              
     e( 26 - 26) =     78.70212  eV     1   --> A              
     e( 27 - 27) =     79.17646  eV     1   --> A              
     e( 28 - 28) =     83.89830  eV     1   --> A              
     e( 29 - 29) =     86.09070  eV     1   --> A              
     e( 30 - 30) =     88.38088  eV     1   --> A              

 **************************************************************************

 **************************************************************************

                    xk=(   0.17500,   0.30311,   0.00000  )

     Band symmetry, C_1 (1)     point group:

     e(  1 -  1) =    -81.55940  eV     1   --> A              
     e(  2 -  2) =    -72.60221  eV     1   --> A              
     e(  3 -  3) =    -41.52339  eV     1   --> A              
     e(  4 -  4) =    -41.32333  eV     1   --> A              
     e(  5 -  5) =    -36.00120  eV     1   --> A              
     e(  6 -  6) =    -30.69501  eV     1   --> A              
     e(  7 -  7) =    -30.49491  eV     1   --> A              
     e(  8 -  8) =    -25.01874  eV     1   --> A              
     e(  9 -  9) =     23.89396  eV     1   --> A              
     e( 10 - 10) =     24.76683  eV     1   --> A              
     e( 11 - 11) =     28.29199  eV     1   --> A              
     e( 12 - 12) =     30.11389  eV     1   --> A              
     e( 13 - 13) =     33.07786  eV     1   --> A              
     e( 14 - 14) =     36.95631  eV     1   --> A              
     e( 15 - 15) =     38.00440  eV     1   --> A              
     e( 16 - 16) =     41.10509  eV     1   --> A              
     e( 17 - 17) =     43.44446  eV     1   --> A              
     e( 18 - 18) =     45.91780  eV     1   --> A              
     e( 19 - 19) =     47.92116  eV     1   --> A              
     e( 20 - 20) =     58.59022  eV     1   --> A              
     e( 21 - 21) =     59.50437  eV     1   --> A              
     e( 22 - 22) =     63.03816  eV     1   --> A              
     e( 23 - 23) =     66.16067  eV     1   --> A              
     e( 24 - 24) =     74.03744  eV     1   --> A              
     e( 25 - 25) =     75.80242  eV     1   --> A              
     e( 26 - 26) =     79.13967  eV     1   --> A              
     e( 27 - 27) =     79.54361  eV     1   --> A              
     e( 28 - 28) =     83.97113  eV     1   --> A              
     e( 29 - 29) =     85.76100  eV     1   --> A              
     e( 30 - 30) =     88.24013  eV     1   --> A              

 **************************************************************************

 **************************************************************************

                    xk=(   0.16667,   0.28868,   0.00000  )

     Band symmetry, C_1 (1)     point group:

     e(  1 -  1) =    -81.56524  eV     1   --> A              
     e(  2 -  2) =    -72.60724  eV     1   --> A              
     e(  3 -  3) =    -41.51097  eV     1   --> A              
     e(  4 -  4) =    -41.31852  eV     1   --> A              
     e(  5 -  5) =    -35.98625  eV     1   --> A              
     e(  6 -  6) =    -30.67929  eV     1   --> A              
     e(  7 -  7) =    -30.50105  eV     1   --> A              
     e(  8 -  8) =    -25.02231  eV     1   --> A              
     e(  9 -  9) =     23.93059  eV     1   --> A              
     e( 10 - 10) =     24.77821  eV     1   --> A              
     e( 11 - 11) =     28.33720  eV     1   --> A              
     e( 12 - 12) =     30.03590  eV     1   --> A              
     e( 13 - 13) =     32.75194  eV     1   --> A              
     e( 14 - 14) =     36.95467  eV     1   --> A              
     e( 15 - 15) =     38.01063  eV     1   --> A              
     e( 16 - 16) =     40.92382  eV     1   --> A              
     e( 17 - 17) =     43.47543  eV     1   --> A              
     e( 18 - 18) =     45.73828  eV     1   --> A              
     e( 19 - 19) =     47.80539  eV     1   --> A              
     e( 20 - 20) =     58.55175  eV     1   --> A              
     e( 21 - 21) =     59.71673  eV     1   --> A              
     e( 22 - 22) =     63.51104  eV     1   --> A              
     e( 23 - 23) =     66.41666  eV     1   --> A              
     e( 24 - 24) =     74.37462  eV     1   --> A              
     e( 25 - 25) =     76.25700  eV     1   --> A              
     e( 26 - 26) =     79.47243  eV     1   --> A              
     e( 27 - 27) =     79.96671  eV     1   --> A              
     e( 28 - 28) =     84.07285  eV     1   --> A              
     e( 29 - 29) =     85.45254  eV     1   --> A              
     e( 30 - 30) =     88.13236  eV     1   --> A              

 **************************************************************************

 **************************************************************************

                    xk=(   0.15833,   0.27424,   0.00000  )

     Band symmetry, C_1 (1)     point group:

     e(  1 -  1) =    -81.57113  eV     1   --> A              
     e(  2 -  2) =    -72.61230  eV     1   --> A              
     e(  3 -  3) =    -41.49739  eV     1   --> A              
     e(  4 -  4) =    -41.31417  eV     1   --> A              
     e(  5 -  5) =    -35.97047  eV     1   --> A              
     e(  6 -  6) =    -30.66375  eV     1   --> A              
     e(  7 -  7) =    -30.50618  eV     1   --> A              
     e(  8 -  8) =    -25.02513  eV     1   --> A              
     e(  9 -  9) =     23.97343  eV     1   --> A              
     e( 10 - 10) =     24.78833  eV     1   --> A              
     e( 11 - 11) =     28.38474  eV     1   --> A              
     e( 12 - 12) =     29.95691  eV     1   --> A              
     e( 13 - 13) =     32.42547  eV     1   --> A              
     e( 14 - 14) =     36.96228  eV     1   --> A              
     e( 15 - 15) =     38.01598  eV     1   --> A              
     e( 16 - 16) =     40.73552  eV     1   --> A              
     e( 17 - 17) =     43.51008  eV     1   --> A              
     e( 18 - 18) =     45.56898  eV     1   --> A              
     e( 19 - 19) =     47.68859  eV     1   --> A              
     e( 20 - 20) =     58.49443  eV     1   --> A              
     e( 21 - 21) =     59.88237  eV     1   --> A              
     e( 22 - 22) =     64.04659  eV     1   --> A              
     e( 23 - 23) =     66.73201  eV     1   --> A              
     e( 24 - 24) =     74.70103  eV     1   --> A              
     e( 25 - 25) =     76.72746  eV     1   --> A              
     e( 26 - 26) =     79.70558  eV     1   --> A              
     e( 27 - 27) =     80.43925  eV     1   --> A              
     e( 28 - 28) =     84.17841  eV     1   --> A              
     e( 29 - 29) =     85.18363  eV     1   --> A              
     e( 30 - 30) =     88.06751  eV     1   --> A              

 **************************************************************************

 **************************************************************************

                    xk=(   0.15000,   0.25981,   0.00000  )

     Band symmetry, C_1 (1)     point group:

     e(  1 -  1) =    -81.57730  eV     1   --> A              
     e(  2 -  2) =    -72.61771  eV     1   --> A              
     e(  3 -  3) =    -41.48330  eV     1   --> A              
     e(  4 -  4) =    -41.31020  eV     1   --> A              
     e(  5 -  5) =    -35.95481  eV     1   --> A              
     e(  6 -  6) =    -30.64857  eV     1   --> A              
     e(  7 -  7) =    -30.51071  eV     1   --> A              
     e(  8 -  8) =    -25.02838  eV     1   --> A              
     e(  9 -  9) =     24.02031  eV     1   --> A              
     e( 10 - 10) =     24.79838  eV     1   --> A              
     e( 11 - 11) =     28.43402  eV     1   --> A              
     e( 12 - 12) =     29.87763  eV     1   --> A              
     e( 13 - 13) =     32.09980  eV     1   --> A              
     e( 14 - 14) =     36.97810  eV     1   --> A              
     e( 15 - 15) =     38.02175  eV     1   --> A              
     e( 16 - 16) =     40.53707  eV     1   --> A              
     e( 17 - 17) =     43.54739  eV     1   --> A              
     e( 18 - 18) =     45.41034  eV     1   --> A              
     e( 19 - 19) =     47.56837  eV     1   --> A              
     e( 20 - 20) =     58.42551  eV     1   --> A              
     e( 21 - 21) =     60.00559  eV     1   --> A              
     e( 22 - 22) =     64.63170  eV     1   --> A              
     e( 23 - 23) =     67.10293  eV     1   --> A              
     e( 24 - 24) =     75.01607  eV     1   --> A              
     e( 25 - 25) =     77.20696  eV     1   --> A              
     e( 26 - 26) =     79.87672  eV     1   --> A              
     e( 27 - 27) =     80.92306  eV     1   --> A              
     e( 28 - 28) =     84.23215  eV     1   --> A              
     e( 29 - 29) =     84.99535  eV     1   --> A              
     e( 30 - 30) =     88.05296  eV     1   --> A              

 **************************************************************************

 **************************************************************************

                    xk=(   0.14167,   0.24537,   0.00000  )

     Band symmetry, C_1 (1)     point group:

     e(  1 -  1) =    -81.58324  eV     1   --> A              
     e(  2 -  2) =    -72.62281  eV     1   --> A              
     e(  3 -  3) =    -41.46855  eV     1   --> A              
     e(  4 -  4) =    -41.30682  eV     1   --> A              
     e(  5 -  5) =    -35.93877  eV     1   --> A              
     e(  6 -  6) =    -30.63414  eV     1   --> A              
     e(  7 -  7) =    -30.51472  eV     1   --> A              
     e(  8 -  8) =    -25.03126  eV     1   --> A              
     e(  9 -  9) =     24.07066  eV     1   --> A              
     e( 10 - 10) =     24.80568  eV     1   --> A              
     e( 11 - 11) =     28.48395  eV     1   --> A              
     e( 12 - 12) =     29.79787  eV     1   --> A              
     e( 13 - 13) =     31.78008  eV     1   --> A              
     e( 14 - 14) =     36.99868  eV     1   --> A              
     e( 15 - 15) =     38.02510  eV     1   --> A              
     e( 16 - 16) =     40.33306  eV     1   --> A              
     e( 17 - 17) =     43.58771  eV     1   --> A              
     e( 18 - 18) =     45.26412  eV     1   --> A              
     e( 19 - 19) =     47.44622  eV     1   --> A              
     e( 20 - 20) =     58.35024  eV     1   --> A              
     e( 21 - 21) =     60.09289  eV     1   --> A              
     e( 22 - 22) =     65.25528  eV     1   --> A              
     e( 23 - 23) =     67.52466  eV     1   --> A              
     e( 24 - 24) =     75.31834  eV     1   --> A              
     e( 25 - 25) =     77.68887  eV     1   --> A              
     e( 26 - 26) =     80.01215  eV     1   --> A              
     e( 27 - 27) =     81.39566  eV     1   --> A              
     e( 28 - 28) =     84.16763  eV     1   --> A              
     e( 29 - 29) =     84.93870  eV     1   --> A              
     e( 30 - 30) =     88.09964  eV     1   --> A              

 **************************************************************************

 **************************************************************************

                    xk=(   0.13333,   0.23094,   0.00000  )

     Band symmetry, C_1 (1)     point group:

     e(  1 -  1) =    -81.58914  eV     1   --> A              
     e(  2 -  2) =    -72.62787  eV     1   --> A              
     e(  3 -  3) =    -41.45344  eV     1   --> A              
     e(  4 -  4) =    -41.30388  eV     1   --> A              
     e(  5 -  5) =    -35.92276  eV     1   --> A              
     e(  6 -  6) =    -30.62039  eV     1   --> A              
     e(  7 -  7) =    -30.51813  eV     1   --> A              
     e(  8 -  8) =    -25.03410  eV     1   --> A              
     e(  9 -  9) =     24.12412  eV     1   --> A              
     e( 10 - 10) =     24.81172  eV     1   --> A              
     e( 11 - 11) =     28.53391  eV     1   --> A              
     e( 12 - 12) =     29.71845  eV     1   --> A              
     e( 13 - 13) =     31.46908  eV     1   --> A              
     e( 14 - 14) =     37.02399  eV     1   --> A              
     e( 15 - 15) =     38.02753  eV     1   --> A              
     e( 16 - 16) =     40.12332  eV     1   --> A              
     e( 17 - 17) =     43.63042  eV     1   --> A              
     e( 18 - 18) =     45.12992  eV     1   --> A              
     e( 19 - 19) =     47.32232  eV     1   --> A              
     e( 20 - 20) =     58.27178  eV     1   --> A              
     e( 21 - 21) =     60.15162  eV     1   --> A              
     e( 22 - 22) =     65.90921  eV     1   --> A              
     e( 23 - 23) =     67.99188  eV     1   --> A              
     e( 24 - 24) =     75.60489  eV     1   --> A              
     e( 25 - 25) =     78.16732  eV     1   --> A              
     e( 26 - 26) =     80.12929  eV     1   --> A              
     e( 27 - 27) =     81.83555  eV     1   --> A              
     e( 28 - 28) =     84.01576  eV     1   --> A              
     e( 29 - 29) =     84.97338  eV     1   --> A              
     e( 30 - 30) =     88.21060  eV     1   --> A              

 **************************************************************************

 **************************************************************************

                    xk=(   0.12500,   0.21651,   0.00000  )

     Band symmetry, C_1 (1)     point group:

     e(  1 -  1) =    -81.59500  eV     1   --> A              
     e(  2 -  2) =    -72.63291  eV     1   --> A              
     e(  3 -  3) =    -41.43870  eV     1   --> A              
     e(  4 -  4) =    -41.30158  eV     1   --> A              
     e(  5 -  5) =    -35.90778  eV     1   --> A              
     e(  6 -  6) =    -30.60769  eV     1   --> A              
     e(  7 -  7) =    -30.52137  eV     1   --> A              
     e(  8 -  8) =    -25.03793  eV     1   --> A              
     e(  9 -  9) =     24.17814  eV     1   --> A              
     e( 10 - 10) =     24.81609  eV     1   --> A              
     e( 11 - 11) =     28.58270  eV     1   --> A              
     e( 12 - 12) =     29.63958  eV     1   --> A              
     e( 13 - 13) =     31.16723  eV     1   --> A              
     e( 14 - 14) =     37.05173  eV     1   --> A              
     e( 15 - 15) =     38.02838  eV     1   --> A              
     e( 16 - 16) =     39.90604  eV     1   --> A              
     e( 17 - 17) =     43.67472  eV     1   --> A              
     e( 18 - 18) =     45.00620  eV     1   --> A              
     e( 19 - 19) =     47.19609  eV     1   --> A              
     e( 20 - 20) =     58.19176  eV     1   --> A              
     e( 21 - 21) =     60.18587  eV     1   --> A              
     e( 22 - 22) =     66.58719  eV     1   --> A              
     e( 23 - 23) =     68.49873  eV     1   --> A              
     e( 24 - 24) =     75.87125  eV     1   --> A              
     e( 25 - 25) =     78.63520  eV     1   --> A              
     e( 26 - 26) =     80.24219  eV     1   --> A              
     e( 27 - 27) =     82.20962  eV     1   --> A              
     e( 28 - 28) =     83.86578  eV     1   --> A              
     e( 29 - 29) =     85.02144  eV     1   --> A              
     e( 30 - 30) =     88.37642  eV     1   --> A              

 **************************************************************************

 **************************************************************************

                    xk=(   0.11667,   0.20207,   0.00000  )

     Band symmetry, C_1 (1)     point group:

     e(  1 -  1) =    -81.60066  eV     1   --> A              
     e(  2 -  2) =    -72.63777  eV     1   --> A              
     e(  3 -  3) =    -41.42334  eV     1   --> A              
     e(  4 -  4) =    -41.29934  eV     1   --> A              
     e(  5 -  5) =    -35.89176  eV     1   --> A              
     e(  6 -  6) =    -30.59539  eV     1   --> A              
     e(  7 -  7) =    -30.52350  eV     1   --> A              
     e(  8 -  8) =    -25.04020  eV     1   --> A              
     e(  9 -  9) =     24.23656  eV     1   --> A              
     e( 10 - 10) =     24.82055  eV     1   --> A              
     e( 11 - 11) =     28.62986  eV     1   --> A              
     e( 12 - 12) =     29.56256  eV     1   --> A              
     e( 13 - 13) =     30.88342  eV     1   --> A              
     e( 14 - 14) =     37.08408  eV     1   --> A              
     e( 15 - 15) =     38.02971  eV     1   --> A              
     e( 16 - 16) =     39.69144  eV     1   --> A              
     e( 17 - 17) =     43.72163  eV     1   --> A              
     e( 18 - 18) =     44.89493  eV     1   --> A              
     e( 19 - 19) =     47.07335  eV     1   --> A              
     e( 20 - 20) =     58.11426  eV     1   --> A              
     e( 21 - 21) =     60.20556  eV     1   --> A              
     e( 22 - 22) =     67.28528  eV     1   --> A              
     e( 23 - 23) =     69.04108  eV     1   --> A              
     e( 24 - 24) =     76.11362  eV     1   --> A              
     e( 25 - 25) =     79.08718  eV     1   --> A              
     e( 26 - 26) =     80.36461  eV     1   --> A              
     e( 27 - 27) =     82.46299  eV     1   --> A              
     e( 28 - 28) =     83.79549  eV     1   --> A              
     e( 29 - 29) =     85.05638  eV     1   --> A              
     e( 30 - 30) =     88.57232  eV     1   --> A              

 **************************************************************************

 **************************************************************************

                    xk=(   0.10833,   0.18764,   0.00000  )

     Band symmetry, C_1 (1)     point group:

     e(  1 -  1) =    -81.60618  eV     1   --> A              
     e(  2 -  2) =    -72.64250  eV     1   --> A              
     e(  3 -  3) =    -41.40821  eV     1   --> A              
     e(  4 -  4) =    -41.29752  eV     1   --> A              
     e(  5 -  5) =    -35.87668  eV     1   --> A              
     e(  6 -  6) =    -30.58409  eV     1   --> A              
     e(  7 -  7) =    -30.52516  eV     1   --> A              
     e(  8 -  8) =    -25.04289  eV     1   --> A              
     e(  9 -  9) =     24.29581  eV     1   --> A              
     e( 10 - 10) =     24.82337  eV     1   --> A              
     e( 11 - 11) =     28.67312  eV     1   --> A              
     e( 12 - 12) =     29.48674  eV     1   --> A              
     e( 13 - 13) =     30.61675  eV     1   --> A              
     e( 14 - 14) =     37.11697  eV     1   --> A              
     e( 15 - 15) =     38.02983  eV     1   --> A              
     e( 16 - 16) =     39.47861  eV     1   --> A              
     e( 17 - 17) =     43.76902  eV     1   --> A              
     e( 18 - 18) =     44.79388  eV     1   --> A              
     e( 19 - 19) =     46.94989  eV     1   --> A              
     e( 20 - 20) =     58.03758  eV     1   --> A              
     e( 21 - 21) =     60.21037  eV     1   --> A              
     e( 22 - 22) =     67.99950  eV     1   --> A              
     e( 23 - 23) =     69.61252  eV     1   --> A              
     e( 24 - 24) =     76.32637  eV     1   --> A              
     e( 25 - 25) =     79.51230  eV     1   --> A              
     e( 26 - 26) =     80.50398  eV     1   --> A              
     e( 27 - 27) =     82.54228  eV     1   --> A              
     e( 28 - 28) =     83.84930  eV     1   --> A              
     e( 29 - 29) =     85.08623  eV     1   --> A              
     e( 30 - 30) =     88.75258  eV     1   --> A              

 **************************************************************************

 **************************************************************************

                    xk=(   0.10000,   0.17321,   0.00000  )

     Band symmetry, C_1 (1)     point group:

     e(  1 -  1) =    -81.61134  eV     1   --> A              
     e(  2 -  2) =    -72.64688  eV     1   --> A              
     e(  3 -  3) =    -41.39318  eV     1   --> A              
     e(  4 -  4) =    -41.29577  eV     1   --> A              
     e(  5 -  5) =    -35.86151  eV     1   --> A              
     e(  6 -  6) =    -30.57340  eV     1   --> A              
     e(  7 -  7) =    -30.52603  eV     1   --> A              
     e(  8 -  8) =    -25.04457  eV     1   --> A              
     e(  9 -  9) =     24.35608  eV     1   --> A              
     e( 10 - 10) =     24.82581  eV     1   --> A              
     e( 11 - 11) =     28.71089  eV     1   --> A              
     e( 12 - 12) =     29.41439  eV     1   --> A              
     e( 13 - 13) =     30.37118  eV     1   --> A              
     e( 14 - 14) =     37.15184  eV     1   --> A              
     e( 15 - 15) =     38.02997  eV     1   --> A              
     e( 16 - 16) =     39.27189  eV     1   --> A              
     e( 17 - 17) =     43.81698  eV     1   --> A              
     e( 18 - 18) =     44.70239  eV     1   --> A              
     e( 19 - 19) =     46.83019  eV     1   --> A              
     e( 20 - 20) =     57.96489  eV     1   --> A              
     e( 21 - 21) =     60.20941  eV     1   --> A              
     e( 22 - 22) =     68.72747  eV     1   --> A              
     e( 23 - 23) =     70.20926  eV     1   --> A              
     e( 24 - 24) =     76.50875  eV     1   --> A              
     e( 25 - 25) =     79.90022  eV     1   --> A              
     e( 26 - 26) =     80.66571  eV     1   --> A              
     e( 27 - 27) =     82.48169  eV     1   --> A              
     e( 28 - 28) =     83.97210  eV     1   --> A              
     e( 29 - 29) =     85.14118  eV     1   --> A              
     e( 30 - 30) =     88.85968  eV     1   --> A              

 **************************************************************************

 **************************************************************************

                    xk=(   0.09167,   0.15877,   0.00000  )

     Band symmetry, C_1 (1)     point group:

     e(  1 -  1) =    -81.61638  eV     1   --> A              
     e(  2 -  2) =    -72.65120  eV     1   --> A              
     e(  3 -  3) =    -41.37886  eV     1   --> A              
     e(  4 -  4) =    -41.29481  eV     1   --> A              
     e(  5 -  5) =    -35.84756  eV     1   --> A              
     e(  6 -  6) =    -30.56404  eV     1   --> A              
     e(  7 -  7) =    -30.52656  eV     1   --> A              
     e(  8 -  8) =    -25.04701  eV     1   --> A              
     e(  9 -  9) =     24.41646  eV     1   --> A              
     e( 10 - 10) =     24.82648  eV     1   --> A              
     e( 11 - 11) =     28.73896  eV     1   --> A              
     e( 12 - 12) =     29.34502  eV     1   --> A              
     e( 13 - 13) =     30.14903  eV     1   --> A              
     e( 14 - 14) =     37.18530  eV     1   --> A              
     e( 15 - 15) =     38.02763  eV     1   --> A              
     e( 16 - 16) =     39.06945  eV     1   --> A              
     e( 17 - 17) =     43.86485  eV     1   --> A              
     e( 18 - 18) =     44.61992  eV     1   --> A              
     e( 19 - 19) =     46.71409  eV     1   --> A              
     e( 20 - 20) =     57.89574  eV     1   --> A              
     e( 21 - 21) =     60.19673  eV     1   --> A              
     e( 22 - 22) =     69.46657  eV     1   --> A              
     e( 23 - 23) =     70.82482  eV     1   --> A              
     e( 24 - 24) =     76.65524  eV     1   --> A              
     e( 25 - 25) =     80.23283  eV     1   --> A              
     e( 26 - 26) =     80.84594  eV     1   --> A              
     e( 27 - 27) =     82.36299  eV     1   --> A              
     e( 28 - 28) =     84.06295  eV     1   --> A              
     e( 29 - 29) =     85.24962  eV     1   --> A              
     e( 30 - 30) =     88.82417  eV     1   --> A              

 **************************************************************************

 **************************************************************************

                    xk=(   0.08333,   0.14434,   0.00000  )

     Band symmetry, C_1 (1)     point group:

     e(  1 -  1) =    -81.62115  eV     1   --> A              
     e(  2 -  2) =    -72.65531  eV     1   --> A              
     e(  3 -  3) =    -41.36492  eV     1   --> A              
     e(  4 -  4) =    -41.29386  eV     1   --> A              
     e(  5 -  5) =    -35.83412  eV     1   --> A              
     e(  6 -  6) =    -30.55540  eV     1   --> A              
     e(  7 -  7) =    -30.52646  eV     1   --> A              
     e(  8 -  8) =    -25.04887  eV     1   --> A              
     e(  9 -  9) =     24.47643  eV     1   --> A              
     e( 10 - 10) =     24.82696  eV     1   --> A              
     e( 11 - 11) =     28.75359  eV     1   --> A              
     e( 12 - 12) =     29.28370  eV     1   --> A              
     e( 13 - 13) =     29.95309  eV     1   --> A              
     e( 14 - 14) =     37.21831  eV     1   --> A              
     e( 15 - 15) =     38.02612  eV     1   --> A              
     e( 16 - 16) =     38.88034  eV     1   --> A              
     e( 17 - 17) =     43.91185  eV     1   --> A              
     e( 18 - 18) =     44.54540  eV     1   --> A              
     e( 19 - 19) =     46.60292  eV     1   --> A              
     e( 20 - 20) =     57.83063  eV     1   --> A              
     e( 21 - 21) =     60.18134  eV     1   --> A              
     e( 22 - 22) =     70.21487  eV     1   --> A              
     e( 23 - 23) =     71.45832  eV     1   --> A              
     e( 24 - 24) =     76.76991  eV     1   --> A              
     e( 25 - 25) =     80.49300  eV     1   --> A              
     e( 26 - 26) =     81.02401  eV     1   --> A              
     e( 27 - 27) =     82.25748  eV     1   --> A              
     e( 28 - 28) =     84.08518  eV     1   --> A              
     e( 29 - 29) =     85.40760  eV     1   --> A              
     e( 30 - 30) =     88.58923  eV     1   --> A              

 **************************************************************************

 **************************************************************************

                    xk=(   0.07500,   0.12990,   0.00000  )

     Band symmetry, C_1 (1)     point group:

     e(  1 -  1) =    -81.62544  eV     1   --> A              
     e(  2 -  2) =    -72.65894  eV     1   --> A              
     e(  3 -  3) =    -41.35156  eV     1   --> A              
     e(  4 -  4) =    -41.29304  eV     1   --> A              
     e(  5 -  5) =    -35.82135  eV     1   --> A              
     e(  6 -  6) =    -30.54766  eV     1   --> A              
     e(  7 -  7) =    -30.52588  eV     1   --> A              
     e(  8 -  8) =    -25.05017  eV     1   --> A              
     e(  9 -  9) =     24.53393  eV     1   --> A              
     e( 10 - 10) =     24.82708  eV     1   --> A              
     e( 11 - 11) =     28.74868  eV     1   --> A              
     e( 12 - 12) =     29.23556  eV     1   --> A              
     e( 13 - 13) =     29.78495  eV     1   --> A              
     e( 14 - 14) =     37.24733  eV     1   --> A              
     e( 15 - 15) =     38.02459  eV     1   --> A              
     e( 16 - 16) =     38.70580  eV     1   --> A              
     e( 17 - 17) =     43.95745  eV     1   --> A              
     e( 18 - 18) =     44.47826  eV     1   --> A              
     e( 19 - 19) =     46.49819  eV     1   --> A              
     e( 20 - 20) =     57.77082  eV     1   --> A              
     e( 21 - 21) =     60.16472  eV     1   --> A              
     e( 22 - 22) =     70.96989  eV     1   --> A              
     e( 23 - 23) =     72.10198  eV     1   --> A              
     e( 24 - 24) =     76.85702  eV     1   --> A              
     e( 25 - 25) =     80.66938  eV     1   --> A              
     e( 26 - 26) =     81.14149  eV     1   --> A              
     e( 27 - 27) =     82.23131  eV     1   --> A              
     e( 28 - 28) =     84.06172  eV     1   --> A              
     e( 29 - 29) =     85.57283  eV     1   --> A              
     e( 30 - 30) =     88.17019  eV     1   --> A              

 **************************************************************************

 **************************************************************************

                    xk=(   0.06667,   0.11547,   0.00000  )

     Band symmetry, C_1 (1)     point group:

     e(  1 -  1) =    -81.62959  eV     1   --> A              
     e(  2 -  2) =    -72.66256  eV     1   --> A              
     e(  3 -  3) =    -41.33951  eV     1   --> A              
     e(  4 -  4) =    -41.29246  eV     1   --> A              
     e(  5 -  5) =    -35.80985  eV     1   --> A              
     e(  6 -  6) =    -30.54091  eV     1   --> A              
     e(  7 -  7) =    -30.52511  eV     1   --> A              
     e(  8 -  8) =    -25.05180  eV     1   --> A              
     e(  9 -  9) =     24.58833  eV     1   --> A              
     e( 10 - 10) =     24.82702  eV     1   --> A              
     e( 11 - 11) =     28.71858  eV     1   --> A              
     e( 12 - 12) =     29.20450  eV     1   --> A              
     e( 13 - 13) =     29.64519  eV     1   --> A              
     e( 14 - 14) =     37.26999  eV     1   --> A              
     e( 15 - 15) =     38.02243  eV     1   --> A              
     e( 16 - 16) =     38.54606  eV     1   --> A              
     e( 17 - 17) =     44.00040  eV     1   --> A              
     e( 18 - 18) =     44.41818  eV     1   --> A              
     e( 19 - 19) =     46.40113  eV     1   --> A              
     e( 20 - 20) =     57.71620  eV     1   --> A              
     e( 21 - 21) =     60.14437  eV     1   --> A              
     e( 22 - 22) =     71.72918  eV     1   --> A              
     e( 23 - 23) =     72.75201  eV     1   --> A              
     e( 24 - 24) =     76.91821  eV     1   --> A              
     e( 25 - 25) =     80.75145  eV     1   --> A              
     e( 26 - 26) =     81.13303  eV     1   --> A              
     e( 27 - 27) =     82.33870  eV     1   --> A              
     e( 28 - 28) =     84.02795  eV     1   --> A              
     e( 29 - 29) =     85.69555  eV     1   --> A              
     e( 30 - 30) =     87.65715  eV     1   --> A              

 **************************************************************************

 **************************************************************************

                    xk=(   0.05833,   0.10104,   0.00000  )

     Band symmetry, C_1 (1)     point group:

     e(  1 -  1) =    -81.63303  eV     1   --> A              
     e(  2 -  2) =    -72.66541  eV     1   --> A              
     e(  3 -  3) =    -41.32858  eV     1   --> A              
     e(  4 -  4) =    -41.29219  eV     1   --> A              
     e(  5 -  5) =    -35.79937  eV     1   --> A              
     e(  6 -  6) =    -30.53533  eV     1   --> A              
     e(  7 -  7) =    -30.52426  eV     1   --> A              
     e(  8 -  8) =    -25.05309  eV     1   --> A              
     e(  9 -  9) =     24.63852  eV     1   --> A              
     e( 10 - 10) =     24.82575  eV     1   --> A              
     e( 11 - 11) =     28.66571  eV     1   --> A              
     e( 12 - 12) =     29.19114  eV     1   --> A              
     e( 13 - 13) =     29.53256  eV     1   --> A              
     e( 14 - 14) =     37.28488  eV     1   --> A              
     e( 15 - 15) =     38.01945  eV     1   --> A              
     e( 16 - 16) =     38.40577  eV     1   --> A              
     e( 17 - 17) =     44.04020  eV     1   --> A              
     e( 18 - 18) =     44.36520  eV     1   --> A              
     e( 19 - 19) =     46.31293  eV     1   --> A              
     e( 20 - 20) =     57.66819  eV     1   --> A              
     e( 21 - 21) =     60.12412  eV     1   --> A              
     e( 22 - 22) =     72.48974  eV     1   --> A              
     e( 23 - 23) =     73.40387  eV     1   --> A              
     e( 24 - 24) =     76.96034  eV     1   --> A              
     e( 25 - 25) =     80.73228  eV     1   --> A              
     e( 26 - 26) =     81.00423  eV     1   --> A              
     e( 27 - 27) =     82.55659  eV     1   --> A              
     e( 28 - 28) =     84.00835  eV     1   --> A              
     e( 29 - 29) =     85.72128  eV     1   --> A              
     e( 30 - 30) =     87.15867  eV     1   --> A              

 **************************************************************************

 **************************************************************************

                    xk=(   0.05000,   0.08660,   0.00000  )

     Band symmetry, C_1 (1)     point group:

     e(  1 -  1) =    -81.63636  eV     1   --> A              
     e(  2 -  2) =    -72.66830  eV     1   --> A              
     e(  3 -  3) =    -41.31905  eV     1   --> A              
     e(  4 -  4) =    -41.29191  eV     1   --> A              
     e(  5 -  5) =    -35.79078  eV     1   --> A              
     e(  6 -  6) =    -30.53065  eV     1   --> A              
     e(  7 -  7) =    -30.52330  eV     1   --> A              
     e(  8 -  8) =    -25.05500  eV     1   --> A              
     e(  9 -  9) =     24.68373  eV     1   --> A              
     e( 10 - 10) =     24.82482  eV     1   --> A              
     e( 11 - 11) =     28.59778  eV     1   --> A              
     e( 12 - 12) =     29.19120  eV     1   --> A              
     e( 13 - 13) =     29.44335  eV     1   --> A              
     e( 14 - 14) =     37.29170  eV     1   --> A              
     e( 15 - 15) =     38.01736  eV     1   --> A              
     e( 16 - 16) =     38.28718  eV     1   --> A              
     e( 17 - 17) =     44.07681  eV     1   --> A              
     e( 18 - 18) =     44.31884  eV     1   --> A              
     e( 19 - 19) =     46.23229  eV     1   --> A              
     e( 20 - 20) =     57.62360  eV     1   --> A              
     e( 21 - 21) =     60.10188  eV     1   --> A              
     e( 22 - 22) =     73.24790  eV     1   --> A              
     e( 23 - 23) =     74.05295  eV     1   --> A              
     e( 24 - 24) =     76.98639  eV     1   --> A              
     e( 25 - 25) =     80.61215  eV     1   --> A              
     e( 26 - 26) =     80.79606  eV     1   --> A              
     e( 27 - 27) =     82.82648  eV     1   --> A              
     e( 28 - 28) =     84.01393  eV     1   --> A              
     e( 29 - 29) =     85.57705  eV     1   --> A              
     e( 30 - 30) =     86.79018  eV     1   --> A              

 **************************************************************************

 **************************************************************************

                    xk=(   0.04167,   0.07217,   0.00000  )

     Band symmetry, C_1 (1)     point group:

     e(  1 -  1) =    -81.63953  eV     1   --> A              
     e(  2 -  2) =    -72.67109  eV     1   --> A              
     e(  3 -  3) =    -41.31068  eV     1   --> A              
     e(  4 -  4) =    -41.29168  eV     1   --> A              
     e(  5 -  5) =    -35.78401  eV     1   --> A              
     e(  6 -  6) =    -30.52686  eV     1   --> A              
     e(  7 -  7) =    -30.52230  eV     1   --> A              
     e(  8 -  8) =    -25.05754  eV     1   --> A              
     e(  9 -  9) =     24.72392  eV     1   --> A              
     e( 10 - 10) =     24.82388  eV     1   --> A              
     e( 11 - 11) =     28.52460  eV     1   --> A              
     e( 12 - 12) =     29.19876  eV     1   --> A              
     e( 13 - 13) =     29.37430  eV     1   --> A              
     e( 14 - 14) =     37.29033  eV     1   --> A              
[...]

 **************************************************************************

 **************************************************************************

                    xk=(   0.10000,   0.05774,   0.00000  )

     Band symmetry, C_s (m)     point group:

     e(  1 -  1) =    -81.63362  eV     1   --> A'             
     e(  2 -  2) =    -72.66603  eV     1   --> A'             
     e(  3 -  3) =    -41.32811  eV     1   --> A'             
     e(  4 -  4) =    -41.29173  eV     1   --> A''            
     e(  5 -  5) =    -35.79952  eV     1   --> A'             
     e(  6 -  6) =    -30.53238  eV     1   --> A''            
     e(  7 -  7) =    -30.52697  eV     1   --> A'             
     e(  8 -  8) =    -25.05430  eV     1   --> A'             
     e(  9 -  9) =     24.64043  eV     1   --> A'             
     e( 10 - 10) =     24.82736  eV     1   --> A''            
     e( 11 - 11) =     28.63595  eV     1   --> A'             
     e( 12 - 12) =     29.26498  eV     1   --> A'             
     e( 13 - 13) =     29.47514  eV     1   --> A''            
     e( 14 - 14) =     37.28357  eV     1   --> A'             
     e( 15 - 15) =     38.02125  eV     1   --> A''            
     e( 16 - 16) =     38.39766  eV     1   --> A'             
     e( 17 - 17) =     44.04356  eV     1   --> A'             
     e( 18 - 18) =     44.36210  eV     1   --> A''            
     e( 19 - 19) =     46.30279  eV     1   --> A'             
     e( 20 - 20) =     57.66111  eV     1   --> A'             
     e( 21 - 21) =     60.11948  eV     1   --> A'             
     e( 22 - 22) =     72.33925  eV     1   --> A'             
     e( 23 - 23) =     73.81447  eV     1   --> A''            
     e( 24 - 24) =     76.79116  eV     1   --> A'             
     e( 25 - 25) =     80.12201  eV     1   --> A'             
     e( 26 - 26) =     81.66738  eV     1   --> A''            
     e( 27 - 27) =     82.53957  eV     1   --> A'             
     e( 28 - 28) =     84.15152  eV     1   --> A''            
     e( 29 - 29) =     85.68293  eV     1   --> A'             
     e( 30 - 30) =     86.88836  eV     1   --> A'             

 **************************************************************************

 **************************************************************************

                    xk=(   0.08750,   0.05052,   0.00000  )

     Band symmetry, C_s (m)     point group:

     e(  1 -  1) =    -81.63638  eV     1   --> A'             
     e(  2 -  2) =    -72.66839  eV     1   --> A'             
     e(  3 -  3) =    -41.31966  eV     1   --> A'             
     e(  4 -  4) =    -41.29161  eV     1   --> A''            
     e(  5 -  5) =    -35.79167  eV     1   --> A'             
     e(  6 -  6) =    -30.52934  eV     1   --> A''            
     e(  7 -  7) =    -30.52501  eV     1   --> A'             
     e(  8 -  8) =    -25.05544  eV     1   --> A'             
     e(  9 -  9) =     24.68036  eV     1   --> A'             
     e( 10 - 10) =     24.82588  eV     1   --> A''            
     e( 11 - 11) =     28.59096  eV     1   --> A'             
     e( 12 - 12) =     29.22970  eV     1   --> A'             
     e( 13 - 13) =     29.42016  eV     1   --> A''            
     e( 14 - 14) =     37.29052  eV     1   --> A'             
     e( 15 - 15) =     38.01882  eV     1   --> A''            
     e( 16 - 16) =     38.29498  eV     1   --> A'             
     e( 17 - 17) =     44.07478  eV     1   --> A'             
     e( 18 - 18) =     44.32215  eV     1   --> A''            
     e( 19 - 19) =     46.23444  eV     1   --> A'             
     e( 20 - 20) =     57.62445  eV     1   --> A'             
     e( 21 - 21) =     60.10212  eV     1   --> A'             
     e( 22 - 22) =     73.03646  eV     1   --> A'             
     e( 23 - 23) =     74.29954  eV     1   --> A''            
     e( 24 - 24) =     76.85608  eV     1   --> A'             
     e( 25 - 25) =     80.12413  eV     1   --> A'             
     e( 26 - 26) =     81.36057  eV     1   --> A''            
     e( 27 - 27) =     82.79236  eV     1   --> A'             
     e( 28 - 28) =     84.08519  eV     1   --> A''            
     e( 29 - 29) =     85.54966  eV     1   --> A'             
     e( 30 - 30) =     86.70038  eV     1   --> A'             

 **************************************************************************

 **************************************************************************

                    xk=(   0.07500,   0.04330,   0.00000  )

     Band symmetry, C_s (m)     point group:

     e(  1 -  1) =    -81.63887  eV     1   --> A'             
     e(  2 -  2) =    -72.67052  eV     1   --> A'             
     e(  3 -  3) =    -41.31241  eV     1   --> A'             
     e(  4 -  4) =    -41.29160  eV     1   --> A''            
     e(  5 -  5) =    -35.78537  eV     1   --> A'             
     e(  6 -  6) =    -30.52677  eV     1   --> A''            
     e(  7 -  7) =    -30.52347  eV     1   --> A'             
     e(  8 -  8) =    -25.05719  eV     1   --> A'             
     e(  9 -  9) =     24.71584  eV     1   --> A'             
     e( 10 - 10) =     24.82428  eV     1   --> A''            
     e( 11 - 11) =     28.53465  eV     1   --> A'             
     e( 12 - 12) =     29.21539  eV     1   --> A'             
     e( 13 - 13) =     29.37171  eV     1   --> A''            
     e( 14 - 14) =     37.29064  eV     1   --> A'             
     e( 15 - 15) =     38.01622  eV     1   --> A''            
     e( 16 - 16) =     38.20867  eV     1   --> A'             
     e( 17 - 17) =     44.10342  eV     1   --> A'             
     e( 18 - 18) =     44.28673  eV     1   --> A''            
     e( 19 - 19) =     46.17238  eV     1   --> A'             
     e( 20 - 20) =     57.59035  eV     1   --> A'             
     e( 21 - 21) =     60.08298  eV     1   --> A'             
     e( 22 - 22) =     73.72719  eV     1   --> A'             
     e( 23 - 23) =     74.78242  eV     1   --> A''            
     e( 24 - 24) =     76.90597  eV     1   --> A'             
     e( 25 - 25) =     80.07220  eV     1   --> A'             
     e( 26 - 26) =     80.99097  eV     1   --> A''            
     e( 27 - 27) =     83.04310  eV     1   --> A'             
     e( 28 - 28) =     84.07055  eV     1   --> A''            
     e( 29 - 29) =     85.28951  eV     1   --> A'             
     e( 30 - 30) =     86.59022  eV     1   --> A'             

 **************************************************************************

 **************************************************************************

                    xk=(   0.06250,   0.03608,   0.00000  )

     Band symmetry, C_s (m)     point group:

     e(  1 -  1) =    -81.64119  eV     1   --> A'             
     e(  2 -  2) =    -72.67255  eV     1   --> A'             
     e(  3 -  3) =    -41.30626  eV     1   --> A'             
     e(  4 -  4) =    -41.29161  eV     1   --> A''            
     e(  5 -  5) =    -35.78044  eV     1   --> A'             
     e(  6 -  6) =    -30.52452  eV     1   --> A''            
     e(  7 -  7) =    -30.52233  eV     1   --> A'             
     e(  8 -  8) =    -25.05932  eV     1   --> A'             
     e(  9 -  9) =     24.74630  eV     1   --> A'             
     e( 10 - 10) =     24.82295  eV     1   --> A''            
     e( 11 - 11) =     28.47584  eV     1   --> A'             
     e( 12 - 12) =     29.21349  eV     1   --> A'             
     e( 13 - 13) =     29.33027  eV     1   --> A''            
     e( 14 - 14) =     37.28479  eV     1   --> A'             
     e( 15 - 15) =     38.01411  eV     1   --> A''            
     e( 16 - 16) =     38.13927  eV     1   --> A'             
     e( 17 - 17) =     44.12810  eV     1   --> A'             
     e( 18 - 18) =     44.25682  eV     1   --> A''            
     e( 19 - 19) =     46.11738  eV     1   --> A'             
     e( 20 - 20) =     57.56000  eV     1   --> A'             
     e( 21 - 21) =     60.06425  eV     1   --> A'             
     e( 22 - 22) =     74.40488  eV     1   --> A'             
     e( 23 - 23) =     75.26005  eV     1   --> A''            
     e( 24 - 24) =     76.94374  eV     1   --> A'             
     e( 25 - 25) =     79.95887  eV     1   --> A'             
     e( 26 - 26) =     80.58692  eV     1   --> A''            
     e( 27 - 27) =     83.27952  eV     1   --> A'             
     e( 28 - 28) =     84.08653  eV     1   --> A''            
     e( 29 - 29) =     84.96832  eV     1   --> A'             
     e( 30 - 30) =     86.52991  eV     1   --> A'             

 **************************************************************************

 **************************************************************************

                    xk=(   0.05000,   0.02887,   0.00000  )

     Band symmetry, C_s (m)     point group:

     e(  1 -  1) =    -81.64295  eV     1   --> A'             
     e(  2 -  2) =    -72.67404  eV     1   --> A'             
     e(  3 -  3) =    -41.30093  eV     1   --> A'             
     e(  4 -  4) =    -41.29153  eV     1   --> A''            
     e(  5 -  5) =    -35.77569  eV     1   --> A'             
     e(  6 -  6) =    -30.52262  eV     1   --> A''            
     e(  7 -  7) =    -30.52113  eV     1   --> A'             
     e(  8 -  8) =    -25.06023  eV     1   --> A'             
     e(  9 -  9) =     24.77270  eV     1   --> A'             
     e( 10 - 10) =     24.82209  eV     1   --> A''            
     e( 11 - 11) =     28.42318  eV     1   --> A'             
     e( 12 - 12) =     29.21789  eV     1   --> A'             
     e( 13 - 13) =     29.29633  eV     1   --> A''            
     e( 14 - 14) =     37.27586  eV     1   --> A'             
     e( 15 - 15) =     38.01269  eV     1   --> A''            
     e( 16 - 16) =     38.08915  eV     1   --> A'             
     e( 17 - 17) =     44.14935  eV     1   --> A'             
     e( 18 - 18) =     44.23233  eV     1   --> A''            
     e( 19 - 19) =     46.07316  eV     1   --> A'             
     e( 20 - 20) =     57.53611  eV     1   --> A'             
     e( 21 - 21) =     60.05069  eV     1   --> A'             
     e( 22 - 22) =     75.05940  eV     1   --> A'             
     e( 23 - 23) =     75.72732  eV     1   --> A''            
     e( 24 - 24) =     76.97251  eV     1   --> A'             
     e( 25 - 25) =     79.78555  eV     1   --> A'             
     e( 26 - 26) =     80.16675  eV     1   --> A''            
     e( 27 - 27) =     83.48927  eV     1   --> A'             
     e( 28 - 28) =     84.11693  eV     1   --> A''            
     e( 29 - 29) =     84.65660  eV     1   --> A'             
     e( 30 - 30) =     86.49253  eV     1   --> A'             

 **************************************************************************

 **************************************************************************

                    xk=(   0.03750,   0.02165,   0.00000  )

     Band symmetry, C_s (m)     point group:

     e(  1 -  1) =    -81.64433  eV     1   --> A'             
     e(  2 -  2) =    -72.67521  eV     1   --> A'             
     e(  3 -  3) =    -41.29674  eV     1   --> A'             
     e(  4 -  4) =    -41.29147  eV     1   --> A''            
     e(  5 -  5) =    -35.77195  eV     1   --> A'             
     e(  6 -  6) =    -30.52113  eV     1   --> A''            
     e(  7 -  7) =    -30.52018  eV     1   --> A'             
     e(  8 -  8) =    -25.06093  eV     1   --> A'             
     e(  9 -  9) =     24.79365  eV     1   --> A'             
     e( 10 - 10) =     24.82144  eV     1   --> A''            
     e( 11 - 11) =     28.37935  eV     1   --> A'             
     e( 12 - 12) =     29.22421  eV     1   --> A'             
     e( 13 - 13) =     29.26977  eV     1   --> A''            
     e( 14 - 14) =     37.26544  eV     1   --> A'             
     e( 15 - 15) =     38.01159  eV     1   --> A''            
     e( 16 - 16) =     38.05325  eV     1   --> A'             
     e( 17 - 17) =     44.16627  eV     1   --> A'             
     e( 18 - 18) =     44.21319  eV     1   --> A''            
     e( 19 - 19) =     46.03832  eV     1   --> A'             
     e( 20 - 20) =     57.51739  eV     1   --> A'             
     e( 21 - 21) =     60.03983  eV     1   --> A'             
     e( 22 - 22) =     75.67414  eV     1   --> A'             
     e( 23 - 23) =     76.17391  eV     1   --> A''            
     e( 24 - 24) =     76.99329  eV     1   --> A'             
     e( 25 - 25) =     79.55454  eV     1   --> A'             
     e( 26 - 26) =     79.74973  eV     1   --> A''            
     e( 27 - 27) =     83.65052  eV     1   --> A'             
     e( 28 - 28) =     84.15000  eV     1   --> A''            
     e( 29 - 29) =     84.40491  eV     1   --> A'             
     e( 30 - 30) =     86.46391  eV     1   --> A'             

 **************************************************************************

 **************************************************************************

                    xk=(   0.02500,   0.01443,   0.00000  )

     Band symmetry, C_s (m)     point group:

     e(  1 -  1) =    -81.64533  eV     1   --> A'             
     e(  2 -  2) =    -72.67605  eV     1   --> A'             
     e(  3 -  3) =    -41.29373  eV     1   --> A'             
     e(  4 -  4) =    -41.29143  eV     1   --> A''            
     e(  5 -  5) =    -35.76924  eV     1   --> A'             
     e(  6 -  6) =    -30.52006  eV     1   --> A''            
     e(  7 -  7) =    -30.51949  eV     1   --> A'             
     e(  8 -  8) =    -25.06143  eV     1   --> A'             
     e(  9 -  9) =     24.80886  eV     1   --> A'             
     e( 10 - 10) =     24.82100  eV     1   --> A''            
     e( 11 - 11) =     28.34678  eV     1   --> A'             
     e( 12 - 12) =     29.23005  eV     1   --> A'             
     e( 13 - 13) =     29.25071  eV     1   --> A''            
     e( 14 - 14) =     37.25601  eV     1   --> A'             
     e( 15 - 15) =     38.01082  eV     1   --> A''            
     e( 16 - 16) =     38.02941  eV     1   --> A'             
     e( 17 - 17) =     44.17856  eV     1   --> A'             
     e( 18 - 18) =     44.19948  eV     1   --> A''            
     e( 19 - 19) =     46.01320  eV     1   --> A'             
     e( 20 - 20) =     57.50396  eV     1   --> A'             
     e( 21 - 21) =     60.03194  eV     1   --> A'             
     e( 22 - 22) =     76.21838  eV     1   --> A'             
     e( 23 - 23) =     76.57813  eV     1   --> A''            
     e( 24 - 24) =     77.00726  eV     1   --> A'             
     e( 25 - 25) =     79.28781  eV     1   --> A'             
     e( 26 - 26) =     79.36335  eV     1   --> A''            
     e( 27 - 27) =     83.73624  eV     1   --> A'             
     e( 28 - 28) =     84.17828  eV     1   --> A''            
     e( 29 - 29) =     84.25395  eV     1   --> A'             
     e( 30 - 30) =     86.44138  eV     1   --> A'             

 **************************************************************************

 **************************************************************************

                    xk=(   0.01250,   0.00722,   0.00000  )

     Band symmetry, C_s (m)     point group:

     e(  1 -  1) =    -81.64600  eV     1   --> A'             
     e(  2 -  2) =    -72.67670  eV     1   --> A'             
     e(  3 -  3) =    -41.29206  eV     1   --> A'             
     e(  4 -  4) =    -41.29146  eV     1   --> A''            
     e(  5 -  5) =    -35.76837  eV     1   --> A'             
     e(  6 -  7) =    -30.51954  eV     2   --> A'             
     e(  6 -  7) =    -30.51954  eV     2   --> A''            
     e(  8 -  8) =    -25.06266  eV     1   --> A'             
     e(  9 -  9) =     24.81724  eV     1   --> A'             
     e( 10 - 10) =     24.82046  eV     1   --> A''            
     e( 11 - 11) =     28.32498  eV     1   --> A'             
     e( 12 - 12) =     29.23401  eV     1   --> A'             
     e( 13 - 13) =     29.23924  eV     1   --> A''            
     e( 14 - 14) =     37.24845  eV     1   --> A'             
     e( 15 - 15) =     38.01009  eV     1   --> A''            
     e( 16 - 16) =     38.01466  eV     1   --> A'             
     e( 17 - 17) =     44.18596  eV     1   --> A'             
     e( 18 - 18) =     44.19121  eV     1   --> A''            
     e( 19 - 19) =     45.99515  eV     1   --> A'             
     e( 20 - 20) =     57.49397  eV     1   --> A'             
     e( 21 - 21) =     60.02485  eV     1   --> A'             
     e( 22 - 22) =     76.62860  eV     1   --> A'             
     e( 23 - 23) =     76.89045  eV     1   --> A''            
     e( 24 - 24) =     77.01511  eV     1   --> A'             
     e( 25 - 25) =     79.04384  eV     1   --> A'             
     e( 26 - 26) =     79.06001  eV     1   --> A''            
     e( 27 - 27) =     83.74435  eV     1   --> A'             
     e( 28 - 28) =     84.19660  eV     1   --> A''            
     e( 29 - 29) =     84.20683  eV     1   --> A'             
     e( 30 - 30) =     86.42350  eV     1   --> A'             

 **************************************************************************

 **************************************************************************

                    xk=(   0.00000,   0.00000,   0.00000  )

     point group C_3v (3m)  
     there are  3 classes
     the character table:

       E     2C3   3s_v 
A_1    1.00  1.00  1.00
A_2    1.00  1.00 -1.00
E      2.00 -1.00  0.00

     the symmetry operations in each class and the name of the first element:

     E        1
                                                                 
     2C3      2    3
                                                                 
     3s_v     4    5    6
                                                                 

     Band symmetry, C_3v (3m)   point group:

     e(  1 -  1) =    -81.64613  eV     1   --> A_1  L_1       
     e(  2 -  2) =    -72.67673  eV     1   --> A_1  L_1       
     e(  3 -  4) =    -41.29135  eV     2   --> E    L_3       
     e(  5 -  5) =    -35.76702  eV     1   --> A_1  L_1       
     e(  6 -  7) =    -30.51905  eV     2   --> E    L_3       
     e(  8 -  8) =    -25.06177  eV     1   --> A_1  L_1       
     e(  9 - 10) =     24.82216  eV     2   --> E    L_3       
     e( 11 - 11) =     28.31938  eV     1   --> A_1  L_1       
     e( 12 - 13) =     29.23632  eV     2   --> E    L_3       
     e( 14 - 14) =     37.25069  eV     1   --> A_1  L_1       
     e( 15 - 16) =     38.01227  eV     2   --> E    L_3       
     e( 17 - 18) =     44.18934  eV     2   --> E    L_3       
     e( 19 - 19) =     45.99029  eV     1   --> A_1  L_1       
     e( 20 - 20) =     57.49188  eV     1   --> A_1  L_1       
     e( 21 - 21) =     60.02607  eV     1   --> A_1  L_1       
     e( 22 - 22) =     76.79344  eV     1   --> A_1  L_1       
     e( 23 - 24) =     77.01824  eV     2   --> E    L_3       
     e( 25 - 26) =     78.93714  eV     2   --> E    L_3       
     e( 27 - 27) =     83.73651  eV     1   --> A_1  L_1       
     e( 28 - 29) =     84.20415  eV     2   --> E    L_3       
     e( 30 - 30) =     86.41922  eV     1   --> A_1  L_1       

 **************************************************************************

     BANDS        :      2.47s CPU      2.56s WALL


   This run was terminated on:  10:44:35  15Jun2024            

=------------------------------------------------------------------------------=
   JOB DONE.
=------------------------------------------------------------------------------=
