
     Program PWSCF v.7.2 starts on 15Jun2024 at 10:43:12 

     This program is part of the open-source Quantum ESPRESSO suite
     for quantum simulation of materials; please cite
         "P. Giannozzi et al., J. Phys.:Condens. Matter 21 395502 (2009);
         "P. Giannozzi et al., J. Phys.:Condens. Matter 29 465901 (2017);
         "P. Giannozzi et al., J. Chem. Phys. 152 154105 (2020);
          URL http://www.quantum-espresso.org", 
     in publications or presentations arising from this work. More details at
     http://www.quantum-espresso.org/quote

     Serial version
     8568 MiB available memory on the printing compute node when the environment starts

     Waiting for input...
     Reading input from standard input

     Current dimensions of program PWSCF are:
     Max number of different atomic species (ntypx) = 10
     Max number of k-points (npk) =  40000
     Max angular momentum in pseudopotentials (lmaxx) =  4

     Atomic positions and unit cell read from directory:
     ./SCRATCH/zns_w.save/



     G-vector sticks info
     --------------------
     sticks:   dense  smooth     PW     G-vecs:    dense   smooth      PW
     Sum         313     313     97                 7547     7547    1317

     Using Slab Decomposition



     bravais-lattice index     =            4
     lattice parameter (alat)  =       3.8140  a.u.
     unit-cell volume          =      78.8315 (a.u.)^3
     number of atoms/cell      =            4
     number of atomic types    =            2
     number of electrons       =        52.00
     number of Kohn-Sham states=           30
     kinetic-energy cutoff     =      80.0000  Ry
     charge density cutoff     =     320.0000  Ry
     Exchange-correlation= PBE
                           (   1   4   3   4   0   0   0)

     celldm(1)=   3.814000  celldm(2)=   0.000000  celldm(3)=   1.640692
     celldm(4)=   0.000000  celldm(5)=   0.000000  celldm(6)=   0.000000

     crystal axes: (cart. coord. in units of alat)
               a(1) = (   1.000000   0.000000   0.000000 )  
               a(2) = (  -0.500000   0.866025   0.000000 )  
               a(3) = (   0.000000   0.000000   1.640692 )  

     reciprocal axes: (cart. coord. in units 2 pi/alat)
               b(1) = (  1.000000  0.577350 -0.000000 )  
               b(2) = (  0.000000  1.154701  0.000000 )  
               b(3) = (  0.000000 -0.000000  0.609499 )  


     PseudoPot. # 1 for Zn read from file:
     /home/paolo/project_labqsm/pseudopotentials/Zn_ONCV_PBE-1.2.upf
     MD5 check sum: 732f41c0cd6489a4b50a33b4ec99a2d3
     Pseudo is Norm-conserving, Zval = 20.0
     Generated using ONCVPSP code by D. R. Hamann
     Using radial grid of  602 points,  6 beta functions with: 
                l(1) =   0
                l(2) =   0
                l(3) =   1
                l(4) =   1
                l(5) =   2
                l(6) =   2

     PseudoPot. # 2 for S  read from file:
     /home/paolo/project_labqsm/pseudopotentials/S_ONCV_PBE-1.2.upf
     MD5 check sum: f9d020296ee6110346977bfd66d424f6
     Pseudo is Norm-conserving, Zval =  6.0
     Generated using ONCVPSP code by D. R. Hamann
     Using radial grid of  602 points,  4 beta functions with: 
                l(1) =   0
                l(2) =   0
                l(3) =   1
                l(4) =   1

     atomic species   valence    mass     pseudopotential
        Zn            20.00    65.38000     Zn( 1.00)
        S              6.00    32.06000     S ( 1.00)

      6 Sym. Ops. (no inversion) found


                                    s                        frac. trans.

      isym =  1     identity                                     

 cryst.   s( 1) = (     1          0          0      )
                  (     0          1          0      )
                  (     0          0          1      )

 cart.    s( 1) = (  1.0000000  0.0000000  0.0000000 )
                  (  0.0000000  1.0000000  0.0000000 )
                  (  0.0000000  0.0000000  1.0000000 )


      isym =  2     120 deg rotation - cryst. axis [0,0,1]       

 cryst.   s( 2) = (     0          1          0      )
                  (    -1         -1          0      )
                  (     0          0          1      )

 cart.    s( 2) = ( -0.5000000 -0.8660254  0.0000000 )
                  (  0.8660254 -0.5000000  0.0000000 )
                  (  0.0000000  0.0000000  1.0000000 )


      isym =  3     120 deg rotation - cryst. axis [0,0,-1]      

 cryst.   s( 3) = (    -1         -1          0      )
                  (     1          0          0      )
                  (     0          0          1      )

 cart.    s( 3) = ( -0.5000000  0.8660254  0.0000000 )
                  ( -0.8660254 -0.5000000  0.0000000 )
                  (  0.0000000  0.0000000  1.0000000 )


      isym =  4     inv. 180 deg rotation - cart. axis [1,0,0]   

 cryst.   s( 4) = (    -1          0          0      )
                  (     1          1          0      )
                  (     0          0          1      )

 cart.    s( 4) = ( -1.0000000  0.0000000  0.0000000 )
                  (  0.0000000  1.0000000  0.0000000 )
                  (  0.0000000  0.0000000  1.0000000 )


      isym =  5     inv. 180 deg rotation - cryst. axis [0,1,0]  

 cryst.   s( 5) = (     1          1          0      )
                  (     0         -1          0      )
                  (     0          0          1      )

 cart.    s( 5) = (  0.5000000  0.8660254  0.0000000 )
                  (  0.8660254 -0.5000000  0.0000000 )
                  (  0.0000000  0.0000000  1.0000000 )


      isym =  6     inv. 180 deg rotation - cryst. axis [1,1,0]  

 cryst.   s( 6) = (     0         -1          0      )
                  (    -1          0          0      )
                  (     0          0          1      )

 cart.    s( 6) = (  0.5000000 -0.8660254  0.0000000 )
                  ( -0.8660254 -0.5000000  0.0000000 )
                  (  0.0000000  0.0000000  1.0000000 )


     point group C_3v (3m)  
     there are  3 classes
     the character table:

       E     2C3   3s_v 
A_1    1.00  1.00  1.00
A_2    1.00  1.00 -1.00
E      2.00 -1.00  0.00

     the symmetry operations in each class and the name of the first element:

     E        1
          identity                                               
     2C3      2    3
          120 deg rotation - cryst. axis [0,0,1]                 
     3s_v     4    5    6
          inv. 180 deg rotation - cart. axis [1,0,0]             

   Cartesian axes

     site n.     atom                  positions (alat units)
         1           Zn  tau(   1) = (   0.0000000   0.0000000   0.0000000  )
         2           S   tau(   2) = (   0.0000000   0.0000000   0.3723729  )
         3           Zn  tau(   3) = (   0.0000000   0.5773503   0.5000000  )
         4           S   tau(   4) = (   0.0000000   0.5773503   0.8723729  )

   Crystallographic axes

     site n.     atom                  positions (cryst. coord.)
         1           Zn  tau(   1) = (  0.0000000  0.0000000  0.0000000  )
         2           S   tau(   2) = (  0.0000000  0.0000000  0.2269608  )
         3           Zn  tau(   3) = (  0.3333333  0.6666667  0.3047494  )
         4           S   tau(   4) = (  0.3333333  0.6666667  0.5317103  )

     number of k points=   121
                       cart. coord. in units 2pi/alat
        k(    1) = (   0.3333333   0.5773503   0.0000000), wk =   0.0165289
        k(    2) = (   0.3250000   0.5629165   0.0000000), wk =   0.0165289
        k(    3) = (   0.3166667   0.5484828   0.0000000), wk =   0.0165289
        k(    4) = (   0.3083333   0.5340490   0.0000000), wk =   0.0165289
        k(    5) = (   0.3000000   0.5196152   0.0000000), wk =   0.0165289
        k(    6) = (   0.2916667   0.5051815   0.0000000), wk =   0.0165289
        k(    7) = (   0.2833333   0.4907477   0.0000000), wk =   0.0165289
        k(    8) = (   0.2750000   0.4763140   0.0000000), wk =   0.0165289
        k(    9) = (   0.2666667   0.4618802   0.0000000), wk =   0.0165289
        k(   10) = (   0.2583333   0.4474465   0.0000000), wk =   0.0165289
        k(   11) = (   0.2500000   0.4330127   0.0000000), wk =   0.0165289
        k(   12) = (   0.2416667   0.4185789   0.0000000), wk =   0.0165289
        k(   13) = (   0.2333333   0.4041452   0.0000000), wk =   0.0165289
        k(   14) = (   0.2250000   0.3897114   0.0000000), wk =   0.0165289
        k(   15) = (   0.2166667   0.3752777   0.0000000), wk =   0.0165289
        k(   16) = (   0.2083333   0.3608439   0.0000000), wk =   0.0165289
        k(   17) = (   0.2000000   0.3464102   0.0000000), wk =   0.0165289
        k(   18) = (   0.1916667   0.3319764   0.0000000), wk =   0.0165289
        k(   19) = (   0.1833333   0.3175426   0.0000000), wk =   0.0165289
        k(   20) = (   0.1750000   0.3031089   0.0000000), wk =   0.0165289
        k(   21) = (   0.1666667   0.2886751   0.0000000), wk =   0.0165289
        k(   22) = (   0.1583333   0.2742414   0.0000000), wk =   0.0165289
        k(   23) = (   0.1500000   0.2598076   0.0000000), wk =   0.0165289
        k(   24) = (   0.1416667   0.2453739   0.0000000), wk =   0.0165289
        k(   25) = (   0.1333333   0.2309401   0.0000000), wk =   0.0165289
        k(   26) = (   0.1250000   0.2165064   0.0000000), wk =   0.0165289
        k(   27) = (   0.1166667   0.2020726   0.0000000), wk =   0.0165289
        k(   28) = (   0.1083333   0.1876388   0.0000000), wk =   0.0165289
        k(   29) = (   0.1000000   0.1732051   0.0000000), wk =   0.0165289
        k(   30) = (   0.0916667   0.1587713   0.0000000), wk =   0.0165289
        k(   31) = (   0.0833333   0.1443376   0.0000000), wk =   0.0165289
        k(   32) = (   0.0750000   0.1299038   0.0000000), wk =   0.0165289
        k(   33) = (   0.0666667   0.1154701   0.0000000), wk =   0.0165289
        k(   34) = (   0.0583333   0.1010363   0.0000000), wk =   0.0165289
        k(   35) = (   0.0500000   0.0866025   0.0000000), wk =   0.0165289
        k(   36) = (   0.0416667   0.0721688   0.0000000), wk =   0.0165289
        k(   37) = (   0.0333333   0.0577350   0.0000000), wk =   0.0165289
        k(   38) = (   0.0250000   0.0433013   0.0000000), wk =   0.0165289
        k(   39) = (   0.0166667   0.0288675   0.0000000), wk =   0.0165289
        k(   40) = (   0.0083333   0.0144338   0.0000000), wk =   0.0165289
        k(   41) = (   0.0000000   0.0000000   0.0000000), wk =   0.0165289
        k(   42) = (   0.0125000   0.0072169   0.0000000), wk =   0.0165289
        k(   43) = (   0.0250000   0.0144338   0.0000000), wk =   0.0165289
        k(   44) = (   0.0375000   0.0216506   0.0000000), wk =   0.0165289
        k(   45) = (   0.0500000   0.0288675   0.0000000), wk =   0.0165289
        k(   46) = (   0.0625000   0.0360844   0.0000000), wk =   0.0165289
        k(   47) = (   0.0750000   0.0433013   0.0000000), wk =   0.0165289
        k(   48) = (   0.0875000   0.0505181   0.0000000), wk =   0.0165289
        k(   49) = (   0.1000000   0.0577350   0.0000000), wk =   0.0165289
        k(   50) = (   0.1125000   0.0649519   0.0000000), wk =   0.0165289
        k(   51) = (   0.1250000   0.0721688   0.0000000), wk =   0.0165289
        k(   52) = (   0.1375000   0.0793857   0.0000000), wk =   0.0165289
        k(   53) = (   0.1500000   0.0866025   0.0000000), wk =   0.0165289
        k(   54) = (   0.1625000   0.0938194   0.0000000), wk =   0.0165289
        k(   55) = (   0.1750000   0.1010363   0.0000000), wk =   0.0165289
        k(   56) = (   0.1875000   0.1082532   0.0000000), wk =   0.0165289
        k(   57) = (   0.2000000   0.1154701   0.0000000), wk =   0.0165289
        k(   58) = (   0.2125000   0.1226869   0.0000000), wk =   0.0165289
        k(   59) = (   0.2250000   0.1299038   0.0000000), wk =   0.0165289
        k(   60) = (   0.2375000   0.1371207   0.0000000), wk =   0.0165289
        k(   61) = (   0.2500000   0.1443376   0.0000000), wk =   0.0165289
        k(   62) = (   0.2625000   0.1515544   0.0000000), wk =   0.0165289
        k(   63) = (   0.2750000   0.1587713   0.0000000), wk =   0.0165289
        k(   64) = (   0.2875000   0.1659882   0.0000000), wk =   0.0165289
        k(   65) = (   0.3000000   0.1732051   0.0000000), wk =   0.0165289
        k(   66) = (   0.3125000   0.1804220   0.0000000), wk =   0.0165289
        k(   67) = (   0.3250000   0.1876388   0.0000000), wk =   0.0165289
        k(   68) = (   0.3375000   0.1948557   0.0000000), wk =   0.0165289
        k(   69) = (   0.3500000   0.2020726   0.0000000), wk =   0.0165289
        k(   70) = (   0.3625000   0.2092895   0.0000000), wk =   0.0165289
        k(   71) = (   0.3750000   0.2165064   0.0000000), wk =   0.0165289
        k(   72) = (   0.3875000   0.2237232   0.0000000), wk =   0.0165289
        k(   73) = (   0.4000000   0.2309401   0.0000000), wk =   0.0165289
        k(   74) = (   0.4125000   0.2381570   0.0000000), wk =   0.0165289
        k(   75) = (   0.4250000   0.2453739   0.0000000), wk =   0.0165289
        k(   76) = (   0.4375000   0.2525907   0.0000000), wk =   0.0165289
        k(   77) = (   0.4500000   0.2598076   0.0000000), wk =   0.0165289
        k(   78) = (   0.4625000   0.2670245   0.0000000), wk =   0.0165289
        k(   79) = (   0.4750000   0.2742414   0.0000000), wk =   0.0165289
        k(   80) = (   0.4875000   0.2814583   0.0000000), wk =   0.0165289
        k(   81) = (   0.5000000   0.2886751   0.0000000), wk =   0.0165289
        k(   82) = (   0.4875000   0.2814583   0.0000000), wk =   0.0165289
        k(   83) = (   0.4750000   0.2742414   0.0000000), wk =   0.0165289
        k(   84) = (   0.4625000   0.2670245   0.0000000), wk =   0.0165289
        k(   85) = (   0.4500000   0.2598076   0.0000000), wk =   0.0165289
        k(   86) = (   0.4375000   0.2525907   0.0000000), wk =   0.0165289
        k(   87) = (   0.4250000   0.2453739   0.0000000), wk =   0.0165289
        k(   88) = (   0.4125000   0.2381570   0.0000000), wk =   0.0165289
        k(   89) = (   0.4000000   0.2309401   0.0000000), wk =   0.0165289
        k(   90) = (   0.3875000   0.2237232   0.0000000), wk =   0.0165289
        k(   91) = (   0.3750000   0.2165064   0.0000000), wk =   0.0165289
        k(   92) = (   0.3625000   0.2092895   0.0000000), wk =   0.0165289
        k(   93) = (   0.3500000   0.2020726   0.0000000), wk =   0.0165289
        k(   94) = (   0.3375000   0.1948557   0.0000000), wk =   0.0165289
        k(   95) = (   0.3250000   0.1876388   0.0000000), wk =   0.0165289
        k(   96) = (   0.3125000   0.1804220   0.0000000), wk =   0.0165289
        k(   97) = (   0.3000000   0.1732051   0.0000000), wk =   0.0165289
        k(   98) = (   0.2875000   0.1659882   0.0000000), wk =   0.0165289
        k(   99) = (   0.2750000   0.1587713   0.0000000), wk =   0.0165289
        k(  100) = (   0.2625000   0.1515544   0.0000000), wk =   0.0165289
        k(  101) = (   0.2500000   0.1443376   0.0000000), wk =   0.0165289
        k(  102) = (   0.2375000   0.1371207   0.0000000), wk =   0.0165289
        k(  103) = (   0.2250000   0.1299038   0.0000000), wk =   0.0165289
        k(  104) = (   0.2125000   0.1226869   0.0000000), wk =   0.0165289
        k(  105) = (   0.2000000   0.1154701   0.0000000), wk =   0.0165289
        k(  106) = (   0.1875000   0.1082532   0.0000000), wk =   0.0165289
        k(  107) = (   0.1750000   0.1010363   0.0000000), wk =   0.0165289
        k(  108) = (   0.1625000   0.0938194   0.0000000), wk =   0.0165289
        k(  109) = (   0.1500000   0.0866025   0.0000000), wk =   0.0165289
        k(  110) = (   0.1375000   0.0793857   0.0000000), wk =   0.0165289
        k(  111) = (   0.1250000   0.0721688   0.0000000), wk =   0.0165289
        k(  112) = (   0.1125000   0.0649519   0.0000000), wk =   0.0165289
        k(  113) = (   0.1000000   0.0577350   0.0000000), wk =   0.0165289
        k(  114) = (   0.0875000   0.0505181   0.0000000), wk =   0.0165289
        k(  115) = (   0.0750000   0.0433013   0.0000000), wk =   0.0165289
        k(  116) = (   0.0625000   0.0360844   0.0000000), wk =   0.0165289
        k(  117) = (   0.0500000   0.0288675   0.0000000), wk =   0.0165289
        k(  118) = (   0.0375000   0.0216506   0.0000000), wk =   0.0165289
        k(  119) = (   0.0250000   0.0144338   0.0000000), wk =   0.0165289
        k(  120) = (   0.0125000   0.0072169   0.0000000), wk =   0.0165289
        k(  121) = (   0.0000000   0.0000000   0.0000000), wk =   0.0165289

                       cryst. coord.
        k(    1) = (   0.3333333   0.3333333   0.0000000), wk =   0.0165289
        k(    2) = (   0.3250000   0.3250000   0.0000000), wk =   0.0165289
        k(    3) = (   0.3166667   0.3166667   0.0000000), wk =   0.0165289
        k(    4) = (   0.3083333   0.3083333   0.0000000), wk =   0.0165289
        k(    5) = (   0.3000000   0.3000000   0.0000000), wk =   0.0165289
        k(    6) = (   0.2916667   0.2916667   0.0000000), wk =   0.0165289
        k(    7) = (   0.2833333   0.2833333   0.0000000), wk =   0.0165289
        k(    8) = (   0.2750000   0.2750000   0.0000000), wk =   0.0165289
        k(    9) = (   0.2666667   0.2666667   0.0000000), wk =   0.0165289
        k(   10) = (   0.2583333   0.2583333   0.0000000), wk =   0.0165289
        k(   11) = (   0.2500000   0.2500000   0.0000000), wk =   0.0165289
        k(   12) = (   0.2416667   0.2416667   0.0000000), wk =   0.0165289
        k(   13) = (   0.2333333   0.2333333   0.0000000), wk =   0.0165289
        k(   14) = (   0.2250000   0.2250000   0.0000000), wk =   0.0165289
        k(   15) = (   0.2166667   0.2166667   0.0000000), wk =   0.0165289
        k(   16) = (   0.2083333   0.2083333   0.0000000), wk =   0.0165289
        k(   17) = (   0.2000000   0.2000000   0.0000000), wk =   0.0165289
        k(   18) = (   0.1916667   0.1916667   0.0000000), wk =   0.0165289
        k(   19) = (   0.1833333   0.1833333   0.0000000), wk =   0.0165289
        k(   20) = (   0.1750000   0.1750000   0.0000000), wk =   0.0165289
        k(   21) = (   0.1666667   0.1666667   0.0000000), wk =   0.0165289
        k(   22) = (   0.1583333   0.1583333   0.0000000), wk =   0.0165289
        k(   23) = (   0.1500000   0.1500000   0.0000000), wk =   0.0165289
        k(   24) = (   0.1416667   0.1416667   0.0000000), wk =   0.0165289
        k(   25) = (   0.1333333   0.1333333   0.0000000), wk =   0.0165289
        k(   26) = (   0.1250000   0.1250000   0.0000000), wk =   0.0165289
        k(   27) = (   0.1166667   0.1166667   0.0000000), wk =   0.0165289
        k(   28) = (   0.1083333   0.1083333   0.0000000), wk =   0.0165289
        k(   29) = (   0.1000000   0.1000000   0.0000000), wk =   0.0165289
        k(   30) = (   0.0916667   0.0916667   0.0000000), wk =   0.0165289
        k(   31) = (   0.0833333   0.0833333   0.0000000), wk =   0.0165289
        k(   32) = (   0.0750000   0.0750000   0.0000000), wk =   0.0165289
        k(   33) = (   0.0666667   0.0666667   0.0000000), wk =   0.0165289
        k(   34) = (   0.0583333   0.0583333   0.0000000), wk =   0.0165289
        k(   35) = (   0.0500000   0.0500000   0.0000000), wk =   0.0165289
        k(   36) = (   0.0416667   0.0416667   0.0000000), wk =   0.0165289
        k(   37) = (   0.0333333   0.0333333   0.0000000), wk =   0.0165289
        k(   38) = (   0.0250000   0.0250000   0.0000000), wk =   0.0165289
        k(   39) = (   0.0166667   0.0166667   0.0000000), wk =   0.0165289
        k(   40) = (   0.0083333   0.0083333   0.0000000), wk =   0.0165289
        k(   41) = (   0.0000000   0.0000000   0.0000000), wk =   0.0165289
        k(   42) = (   0.0125000   0.0000000   0.0000000), wk =   0.0165289
        k(   43) = (   0.0250000   0.0000000   0.0000000), wk =   0.0165289
        k(   44) = (   0.0375000   0.0000000   0.0000000), wk =   0.0165289
        k(   45) = (   0.0500000   0.0000000   0.0000000), wk =   0.0165289
        k(   46) = (   0.0625000   0.0000000   0.0000000), wk =   0.0165289
        k(   47) = (   0.0750000   0.0000000   0.0000000), wk =   0.0165289
        k(   48) = (   0.0875000   0.0000000   0.0000000), wk =   0.0165289
        k(   49) = (   0.1000000   0.0000000   0.0000000), wk =   0.0165289
        k(   50) = (   0.1125000   0.0000000   0.0000000), wk =   0.0165289
        k(   51) = (   0.1250000   0.0000000   0.0000000), wk =   0.0165289
        k(   52) = (   0.1375000   0.0000000   0.0000000), wk =   0.0165289
        k(   53) = (   0.1500000   0.0000000   0.0000000), wk =   0.0165289
        k(   54) = (   0.1625000   0.0000000   0.0000000), wk =   0.0165289
        k(   55) = (   0.1750000   0.0000000   0.0000000), wk =   0.0165289
        k(   56) = (   0.1875000   0.0000000   0.0000000), wk =   0.0165289
        k(   57) = (   0.2000000   0.0000000   0.0000000), wk =   0.0165289
        k(   58) = (   0.2125000   0.0000000   0.0000000), wk =   0.0165289
        k(   59) = (   0.2250000   0.0000000   0.0000000), wk =   0.0165289
        k(   60) = (   0.2375000   0.0000000   0.0000000), wk =   0.0165289
        k(   61) = (   0.2500000   0.0000000   0.0000000), wk =   0.0165289
        k(   62) = (   0.2625000   0.0000000   0.0000000), wk =   0.0165289
        k(   63) = (   0.2750000   0.0000000   0.0000000), wk =   0.0165289
        k(   64) = (   0.2875000   0.0000000   0.0000000), wk =   0.0165289
        k(   65) = (   0.3000000   0.0000000   0.0000000), wk =   0.0165289
        k(   66) = (   0.3125000   0.0000000   0.0000000), wk =   0.0165289
        k(   67) = (   0.3250000   0.0000000   0.0000000), wk =   0.0165289
        k(   68) = (   0.3375000   0.0000000   0.0000000), wk =   0.0165289
        k(   69) = (   0.3500000   0.0000000   0.0000000), wk =   0.0165289
        k(   70) = (   0.3625000   0.0000000   0.0000000), wk =   0.0165289
        k(   71) = (   0.3750000   0.0000000   0.0000000), wk =   0.0165289
        k(   72) = (   0.3875000   0.0000000   0.0000000), wk =   0.0165289
        k(   73) = (   0.4000000   0.0000000   0.0000000), wk =   0.0165289
        k(   74) = (   0.4125000   0.0000000   0.0000000), wk =   0.0165289
        k(   75) = (   0.4250000   0.0000000   0.0000000), wk =   0.0165289
        k(   76) = (   0.4375000  -0.0000000   0.0000000), wk =   0.0165289
        k(   77) = (   0.4500000   0.0000000   0.0000000), wk =   0.0165289
        k(   78) = (   0.4625000   0.0000000   0.0000000), wk =   0.0165289
        k(   79) = (   0.4750000   0.0000000   0.0000000), wk =   0.0165289
        k(   80) = (   0.4875000   0.0000000   0.0000000), wk =   0.0165289
        k(   81) = (   0.5000000   0.0000000   0.0000000), wk =   0.0165289
        k(   82) = (   0.4875000  -0.0000000   0.0000000), wk =   0.0165289
        k(   83) = (   0.4750000   0.0000000   0.0000000), wk =   0.0165289
        k(   84) = (   0.4625000   0.0000000   0.0000000), wk =   0.0165289
        k(   85) = (   0.4500000   0.0000000   0.0000000), wk =   0.0165289
        k(   86) = (   0.4375000  -0.0000000   0.0000000), wk =   0.0165289
        k(   87) = (   0.4250000   0.0000000   0.0000000), wk =   0.0165289
        k(   88) = (   0.4125000   0.0000000   0.0000000), wk =   0.0165289
        k(   89) = (   0.4000000   0.0000000   0.0000000), wk =   0.0165289
        k(   90) = (   0.3875000   0.0000000   0.0000000), wk =   0.0165289
        k(   91) = (   0.3750000   0.0000000   0.0000000), wk =   0.0165289
        k(   92) = (   0.3625000   0.0000000   0.0000000), wk =   0.0165289
        k(   93) = (   0.3500000   0.0000000   0.0000000), wk =   0.0165289
        k(   94) = (   0.3375000   0.0000000   0.0000000), wk =   0.0165289
        k(   95) = (   0.3250000   0.0000000   0.0000000), wk =   0.0165289
        k(   96) = (   0.3125000   0.0000000   0.0000000), wk =   0.0165289
        k(   97) = (   0.3000000   0.0000000   0.0000000), wk =   0.0165289
        k(   98) = (   0.2875000   0.0000000   0.0000000), wk =   0.0165289
        k(   99) = (   0.2750000   0.0000000   0.0000000), wk =   0.0165289
        k(  100) = (   0.2625000   0.0000000   0.0000000), wk =   0.0165289
        k(  101) = (   0.2500000   0.0000000   0.0000000), wk =   0.0165289
        k(  102) = (   0.2375000   0.0000000   0.0000000), wk =   0.0165289
        k(  103) = (   0.2250000   0.0000000   0.0000000), wk =   0.0165289
        k(  104) = (   0.2125000   0.0000000   0.0000000), wk =   0.0165289
        k(  105) = (   0.2000000   0.0000000   0.0000000), wk =   0.0165289
        k(  106) = (   0.1875000   0.0000000   0.0000000), wk =   0.0165289
        k(  107) = (   0.1750000   0.0000000   0.0000000), wk =   0.0165289
        k(  108) = (   0.1625000   0.0000000   0.0000000), wk =   0.0165289
        k(  109) = (   0.1500000   0.0000000   0.0000000), wk =   0.0165289
        k(  110) = (   0.1375000   0.0000000   0.0000000), wk =   0.0165289
        k(  111) = (   0.1250000   0.0000000   0.0000000), wk =   0.0165289
        k(  112) = (   0.1125000   0.0000000   0.0000000), wk =   0.0165289
        k(  113) = (   0.1000000   0.0000000   0.0000000), wk =   0.0165289
        k(  114) = (   0.0875000   0.0000000   0.0000000), wk =   0.0165289
        k(  115) = (   0.0750000   0.0000000   0.0000000), wk =   0.0165289
        k(  116) = (   0.0625000   0.0000000   0.0000000), wk =   0.0165289
        k(  117) = (   0.0500000   0.0000000   0.0000000), wk =   0.0165289
        k(  118) = (   0.0375000   0.0000000   0.0000000), wk =   0.0165289
        k(  119) = (   0.0250000   0.0000000   0.0000000), wk =   0.0165289
        k(  120) = (   0.0125000   0.0000000   0.0000000), wk =   0.0165289
        k(  121) = (   0.0000000   0.0000000   0.0000000), wk =   0.0165289

     Dense  grid:     7547 G-vectors     FFT dimensions: (  24,  24,  36)

     Dynamical RAM for                 wfc:       0.44 MB

     Dynamical RAM for     wfc (w. buffer):       0.44 MB

     Dynamical RAM for           str. fact:       0.23 MB

     Dynamical RAM for           local pot:       0.00 MB

     Dynamical RAM for          nlocal pot:       0.76 MB

     Dynamical RAM for                qrad:       2.87 MB

     Dynamical RAM for          rho,v,vnew:       0.82 MB

     Dynamical RAM for           G-vectors:       0.49 MB

     Dynamical RAM for          h,s,v(r/c):       0.16 MB

     Dynamical RAM for          <psi|beta>:       0.02 MB

     Dynamical RAM for                 psi:       0.87 MB

     Dynamical RAM for                hpsi:       0.87 MB

     Dynamical RAM for      wfcinit/wfcrot:       0.89 MB

     Estimated static dynamical RAM per process >       6.74 MB

     Estimated max dynamical RAM per process >       8.67 MB

     The potential is recalculated from file :
     ./SCRATCH/zns_w.save/charge-density

     Starting wfcs are random

     Band Structure Calculation
     Davidson diagonalization with overlap

     Computing kpt #:     1  of   121
     total cpu time spent up to now is        0.7 secs

     Computing kpt #:     2  of   121
     total cpu time spent up to now is        1.2 secs

     Computing kpt #:     3  of   121
     total cpu time spent up to now is        1.8 secs

     Computing kpt #:     4  of   121
     total cpu time spent up to now is        2.4 secs

     Computing kpt #:     5  of   121
     total cpu time spent up to now is        2.9 secs

     Computing kpt #:     6  of   121
     total cpu time spent up to now is        3.4 secs

     Computing kpt #:     7  of   121
     total cpu time spent up to now is        4.0 secs

     Computing kpt #:     8  of   121
     total cpu time spent up to now is        4.5 secs

     Computing kpt #:     9  of   121
     total cpu time spent up to now is        5.1 secs

     Computing kpt #:    10  of   121
     total cpu time spent up to now is        5.6 secs

     Computing kpt #:    11  of   121
     total cpu time spent up to now is        6.1 secs

     Computing kpt #:    12  of   121
     total cpu time spent up to now is        6.7 secs

     Computing kpt #:    13  of   121
     total cpu time spent up to now is        7.2 secs

     Computing kpt #:    14  of   121
     total cpu time spent up to now is        7.7 secs

     Computing kpt #:    15  of   121
     total cpu time spent up to now is        8.2 secs

     Computing kpt #:    16  of   121
     total cpu time spent up to now is        8.7 secs

     Computing kpt #:    17  of   121
     total cpu time spent up to now is        9.2 secs

     Computing kpt #:    18  of   121
     total cpu time spent up to now is        9.7 secs

     Computing kpt #:    19  of   121
     total cpu time spent up to now is       10.2 secs

     Computing kpt #:    20  of   121
     total cpu time spent up to now is       10.7 secs

     Computing kpt #:    21  of   121
     total cpu time spent up to now is       11.3 secs

     Computing kpt #:    22  of   121
     total cpu time spent up to now is       11.8 secs

     Computing kpt #:    23  of   121
     total cpu time spent up to now is       12.3 secs

     Computing kpt #:    24  of   121
     total cpu time spent up to now is       12.9 secs

     Computing kpt #:    25  of   121
     total cpu time spent up to now is       13.5 secs

     Computing kpt #:    26  of   121
     total cpu time spent up to now is       14.0 secs

     Computing kpt #:    27  of   121
     total cpu time spent up to now is       14.6 secs

     Computing kpt #:    28  of   121
     total cpu time spent up to now is       15.2 secs

     Computing kpt #:    29  of   121
     total cpu time spent up to now is       15.7 secs

     Computing kpt #:    30  of   121
     total cpu time spent up to now is       16.3 secs

     Computing kpt #:    31  of   121
     total cpu time spent up to now is       16.9 secs

     Computing kpt #:    32  of   121
     total cpu time spent up to now is       17.4 secs

     Computing kpt #:    33  of   121
     total cpu time spent up to now is       18.0 secs

     Computing kpt #:    34  of   121
     total cpu time spent up to now is       18.6 secs

     Computing kpt #:    35  of   121
     total cpu time spent up to now is       19.2 secs

     Computing kpt #:    36  of   121
     total cpu time spent up to now is       19.7 secs

     Computing kpt #:    37  of   121
     total cpu time spent up to now is       20.3 secs

     Computing kpt #:    38  of   121
     total cpu time spent up to now is       20.9 secs

     Computing kpt #:    39  of   121
     total cpu time spent up to now is       21.4 secs

     Computing kpt #:    40  of   121
     total cpu time spent up to now is       22.0 secs

     Computing kpt #:    41  of   121
     total cpu time spent up to now is       22.5 secs

     Computing kpt #:    42  of   121
     total cpu time spent up to now is       23.1 secs

     Computing kpt #:    43  of   121
     total cpu time spent up to now is       23.6 secs

     Computing kpt #:    44  of   121
     total cpu time spent up to now is       24.2 secs

     Computing kpt #:    45  of   121
     total cpu time spent up to now is       24.7 secs

     Computing kpt #:    46  of   121
     total cpu time spent up to now is       25.3 secs

     Computing kpt #:    47  of   121
     total cpu time spent up to now is       25.9 secs

     Computing kpt #:    48  of   121
     total cpu time spent up to now is       26.5 secs

     Computing kpt #:    49  of   121
     total cpu time spent up to now is       27.0 secs

     Computing kpt #:    50  of   121
     total cpu time spent up to now is       27.6 secs

     Computing kpt #:    51  of   121
     total cpu time spent up to now is       28.2 secs

     Computing kpt #:    52  of   121
     total cpu time spent up to now is       28.7 secs

     Computing kpt #:    53  of   121
     total cpu time spent up to now is       29.3 secs

     Computing kpt #:    54  of   121
     total cpu time spent up to now is       29.8 secs

     Computing kpt #:    55  of   121
     total cpu time spent up to now is       30.4 secs

     Computing kpt #:    56  of   121
     total cpu time spent up to now is       31.0 secs

     Computing kpt #:    57  of   121
     total cpu time spent up to now is       31.5 secs

     Computing kpt #:    58  of   121
     total cpu time spent up to now is       32.1 secs

     Computing kpt #:    59  of   121
     total cpu time spent up to now is       32.7 secs

     Computing kpt #:    60  of   121
     total cpu time spent up to now is       33.2 secs

     Computing kpt #:    61  of   121
     total cpu time spent up to now is       33.8 secs

     Computing kpt #:    62  of   121
     total cpu time spent up to now is       34.4 secs

     Computing kpt #:    63  of   121
     total cpu time spent up to now is       34.9 secs

     Computing kpt #:    64  of   121
     total cpu time spent up to now is       35.5 secs

     Computing kpt #:    65  of   121
     total cpu time spent up to now is       36.0 secs

     Computing kpt #:    66  of   121
     total cpu time spent up to now is       36.5 secs

     Computing kpt #:    67  of   121
     total cpu time spent up to now is       37.1 secs

     Computing kpt #:    68  of   121
     total cpu time spent up to now is       37.6 secs

     Computing kpt #:    69  of   121
     total cpu time spent up to now is       38.2 secs

     Computing kpt #:    70  of   121
     total cpu time spent up to now is       38.7 secs

     Computing kpt #:    71  of   121
     total cpu time spent up to now is       39.2 secs

     Computing kpt #:    72  of   121
     total cpu time spent up to now is       39.7 secs

     Computing kpt #:    73  of   121
     total cpu time spent up to now is       40.2 secs

     Computing kpt #:    74  of   121
     total cpu time spent up to now is       40.7 secs

     Computing kpt #:    75  of   121
     total cpu time spent up to now is       41.2 secs

     Computing kpt #:    76  of   121
     total cpu time spent up to now is       41.7 secs

     Computing kpt #:    77  of   121
     total cpu time spent up to now is       42.2 secs

     Computing kpt #:    78  of   121
     total cpu time spent up to now is       42.7 secs

     Computing kpt #:    79  of   121
     total cpu time spent up to now is       43.2 secs

     Computing kpt #:    80  of   121
     total cpu time spent up to now is       43.7 secs

     Computing kpt #:    81  of   121
     total cpu time spent up to now is       44.2 secs

     Computing kpt #:    82  of   121
     total cpu time spent up to now is       44.7 secs

     Computing kpt #:    83  of   121
     total cpu time spent up to now is       45.2 secs

     Computing kpt #:    84  of   121
     total cpu time spent up to now is       45.7 secs

     Computing kpt #:    85  of   121
     total cpu time spent up to now is       46.2 secs

     Computing kpt #:    86  of   121
     total cpu time spent up to now is       46.7 secs

     Computing kpt #:    87  of   121
     total cpu time spent up to now is       47.2 secs

     Computing kpt #:    88  of   121
     total cpu time spent up to now is       47.7 secs

     Computing kpt #:    89  of   121
     total cpu time spent up to now is       48.2 secs

     Computing kpt #:    90  of   121
     total cpu time spent up to now is       48.7 secs

     Computing kpt #:    91  of   121
     total cpu time spent up to now is       49.2 secs

     Computing kpt #:    92  of   121
     total cpu time spent up to now is       49.7 secs

     Computing kpt #:    93  of   121
     total cpu time spent up to now is       50.3 secs

     Computing kpt #:    94  of   121
     total cpu time spent up to now is       50.8 secs

     Computing kpt #:    95  of   121
     total cpu time spent up to now is       51.4 secs

     Computing kpt #:    96  of   121
     total cpu time spent up to now is       51.9 secs

     Computing kpt #:    97  of   121
     total cpu time spent up to now is       52.5 secs

     Computing kpt #:    98  of   121
     total cpu time spent up to now is       53.0 secs

     Computing kpt #:    99  of   121
     total cpu time spent up to now is       53.6 secs

     Computing kpt #:   100  of   121
     total cpu time spent up to now is       54.1 secs

     Computing kpt #:   101  of   121
     total cpu time spent up to now is       54.6 secs

     Computing kpt #:   102  of   121
     total cpu time spent up to now is       55.2 secs

     Computing kpt #:   103  of   121
     total cpu time spent up to now is       55.7 secs

     Computing kpt #:   104  of   121
     total cpu time spent up to now is       56.3 secs

     Computing kpt #:   105  of   121
     total cpu time spent up to now is       56.9 secs

     Computing kpt #:   106  of   121
     total cpu time spent up to now is       57.5 secs

     Computing kpt #:   107  of   121
     total cpu time spent up to now is       58.0 secs

     Computing kpt #:   108  of   121
     total cpu time spent up to now is       58.6 secs

     Computing kpt #:   109  of   121
     total cpu time spent up to now is       59.1 secs

     Computing kpt #:   110  of   121
     total cpu time spent up to now is       59.7 secs

     Computing kpt #:   111  of   121
     total cpu time spent up to now is       60.3 secs

     Computing kpt #:   112  of   121
     total cpu time spent up to now is       60.8 secs

     Computing kpt #:   113  of   121
     total cpu time spent up to now is       61.4 secs

     Computing kpt #:   114  of   121
     total cpu time spent up to now is       62.0 secs

     Computing kpt #:   115  of   121
     total cpu time spent up to now is       62.5 secs

     Computing kpt #:   116  of   121
     total cpu time spent up to now is       63.1 secs

     Computing kpt #:   117  of   121
     total cpu time spent up to now is       63.6 secs

     Computing kpt #:   118  of   121
     total cpu time spent up to now is       64.2 secs

     Computing kpt #:   119  of   121
     total cpu time spent up to now is       64.7 secs

     Computing kpt #:   120  of   121
     total cpu time spent up to now is       65.3 secs

     Computing kpt #:   121  of   121
     total cpu time spent up to now is       65.9 secs

     ethr =  1.92E-11,  avg # of iterations = 42.2

     total cpu time spent up to now is       65.9 secs

     End of band structure calculation

          k = 0.3333 0.5774 0.0000 (   936 PWs)   bands (ev):

   -81.4992 -72.5498 -41.5199 -41.5040 -36.1448 -30.9150 -30.3881 -24.9869
    23.9184  24.3381  28.1653  30.7175  35.5007  37.6590  37.8100  43.6335
    44.0274  48.9062  50.2182  50.8201  57.3542  64.3703  67.4574  69.4144
    71.2487  71.7415  73.6110  84.8607  92.4135  92.4570

          k = 0.3250 0.5629 0.0000 (   936 PWs)   bands (ev):

   -81.4993 -72.5499 -41.5268 -41.4967 -36.1446 -30.9141 -30.3887 -24.9870
    23.9138  24.3435  28.1615  30.7203  35.4989  37.6588  37.8115  43.6065
    44.0382  48.8837  50.0587  51.0175  57.3619  64.3281  67.4980  69.3382
    71.2738  71.8024  73.6498  84.8530  92.1216  92.6664

          k = 0.3167 0.5485 0.0000 (   938 PWs)   bands (ev):

   -81.5001 -72.5505 -41.5373 -41.4849 -36.1441 -30.9115 -30.3902 -24.9877
    23.9015  24.3581  28.1516  30.7269  35.4918  37.6570  37.8158  43.5471
    44.0459  48.8073  49.8112  51.3902  57.3830  64.2070  67.6155  69.1274
    71.3813  71.9465  73.7541  84.8307  91.7862  92.7274

          k = 0.3083 0.5340 0.0000 (   944 PWs)   bands (ev):

   -81.5010 -72.5514 -41.5478 -41.4727 -36.1431 -30.9075 -30.3933 -24.9890
    23.8826  24.3795  28.1374  30.7343  35.4775  37.6520  37.8219  43.4753
    44.0270  48.6729  49.6089  51.8148  57.4167  64.0236  67.7829  68.8505
    71.5523  72.1496  73.9112  84.7942  91.4363  92.6192

          k = 0.3000 0.5196 0.0000 (   942 PWs)   bands (ev):

   -81.5023 -72.5526 -41.5569 -41.4601 -36.1411 -30.9015 -30.3964 -24.9899
    23.8631  24.4068  28.1214  30.7404  35.4607  37.6445  37.8316  43.3993
    43.9733  48.4972  49.4663  52.2687  57.4629  63.7997  67.9173  68.6265
    71.7461  72.4104  74.1128  84.7473  91.0817  92.4002

          k = 0.2917 0.5052 0.0000 (   942 PWs)   bands (ev):

   -81.5037 -72.5539 -41.5649 -41.4478 -36.1380 -30.8941 -30.4006 -24.9905
    23.8416  24.4361  28.1052  30.7426  35.4367  37.6301  37.8420  43.3191
    43.8862  48.3061  49.3620  52.7436  57.5226  63.5524  67.8226  68.6654
    71.9412  72.7242  74.3544  84.6905  90.7234  92.1163

          k = 0.2833 0.4907 0.0000 (   951 PWs)   bands (ev):

   -81.5056 -72.5556 -41.5717 -41.4362 -36.1348 -30.8854 -30.4059 -24.9920
    23.8199  24.4656  28.0899  30.7393  35.4013  37.6070  37.8523  43.2292
    43.7747  48.1200  49.2723  53.2357  57.5957  63.2959  67.5446  68.9278
    72.1323  73.0803  74.6305  84.6215  90.3618  91.7948

          k = 0.2750 0.4763 0.0000 (   951 PWs)   bands (ev):

   -81.5077 -72.5574 -41.5770 -41.4245 -36.1301 -30.8753 -30.4115 -24.9932
    23.8009  24.4965  28.0773  30.7298  35.3570  37.5738  37.8651  43.1246
    43.6570  47.9482  49.1864  53.7427  57.6835  63.0418  67.2318  69.2685
    72.3221  73.4693  74.9383  84.5468  90.0026  91.4533

          k = 0.2667 0.4619 0.0000 (   947 PWs)   bands (ev):

   -81.5101 -72.5595 -41.5804 -41.4132 -36.1235 -30.8637 -30.4175 -24.9936
    23.7860  24.5273  28.0686  30.7134  35.3014  37.5321  37.8787  42.9950
    43.5516  47.7918  49.0999  54.2618  57.7864  62.7985  66.9290  69.6444
    72.5161  73.8837  75.2747  84.4659  89.6458  91.1049

          k = 0.2583 0.4474 0.0000 (   947 PWs)   bands (ev):

   -81.5130 -72.5620 -41.5826 -41.4024 -36.1167 -30.8513 -30.4241 -24.9950
    23.7732  24.5571  28.0642  30.6895  35.2278  37.4763  37.8923  42.8383
    43.4706  47.6446  49.0034  54.7900  57.9024  62.5712  66.6483  70.0405
    72.7162  74.3178  75.6345  84.3788  89.2896  90.7562

          k = 0.2500 0.4330 0.0000 (   943 PWs)   bands (ev):

   -81.5161 -72.5647 -41.5832 -41.3917 -36.1085 -30.8376 -30.4308 -24.9958
    23.7647  24.5870  28.0646  30.6584  35.1357  37.4111  37.9078  42.6629
    43.4154  47.5013  48.9025  55.3245  58.0299  62.3681  66.3983  70.4510
    72.9266  74.7690  76.0147  84.2886  88.9341  90.4151

          k = 0.2417 0.4186 0.0000 (   945 PWs)   bands (ev):

   -81.5197 -72.5678 -41.5825 -41.3819 -36.1003 -30.8234 -30.4381 -24.9979
    23.7596  24.6140  28.0701  30.6198  35.0177  37.3368  37.9214  42.4788
    43.3797  47.3535  48.7944  55.8610  58.1644  62.1944  66.1821  70.8694
    73.1491  75.2342  76.4108  84.1967  88.5778  90.0850

          k = 0.2333 0.4041 0.0000 (   941 PWs)   bands (ev):

   -81.5235 -72.5712 -41.5797 -41.3724 -36.0902 -30.8082 -30.4452 -24.9991
    23.7607  24.6397  28.0810  30.5744  34.8738  37.2635  37.9351  42.2958
    43.3597  47.2003  48.6876  56.3960  58.3011  62.0605  66.0058  71.2930
    73.3885  75.7120  76.8185  84.1071  88.2208  89.7749

          k = 0.2250 0.3897 0.0000 (   945 PWs)   bands (ev):

   -81.5278 -72.5749 -41.5758 -41.3638 -36.0798 -30.7926 -30.4527 -25.0013
    23.7652  24.6629  28.0970  30.5223  34.6981  37.1899  37.9466  42.1171
    43.3510  47.0366  48.5775  56.9203  58.4329  61.9731  65.8714  71.7162
    73.6477  76.2005  77.2317  84.0226  87.8612  89.4841

          k = 0.2167 0.3753 0.0000 (   949 PWs)   bands (ev):

   -81.5326 -72.5791 -41.5706 -41.3557 -36.0693 -30.7770 -30.4608 -25.0051
    23.7734  24.6838  28.1183  30.4644  34.4872  37.1234  37.9585  41.9436
    43.3509  46.8610  48.4654  57.4244  58.5541  61.9442  65.7818  72.1340
    73.9293  76.6971  77.6450  83.9493  87.5009  89.2127

          k = 0.2083 0.3608 0.0000 (   949 PWs)   bands (ev):

   -81.5374 -72.5832 -41.5636 -41.3481 -36.0569 -30.7607 -30.4681 -25.0074
    23.7879  24.7040  28.1446  30.4018  34.2508  37.0666  37.9697  41.7766
    43.3592  46.6782  48.3576  57.8930  58.6629  61.9877  65.7438  72.5438
    74.2417  77.2011  78.0515  83.8942  87.1422  88.9681

          k = 0.2000 0.3464 0.0000 (   951 PWs)   bands (ev):

   -81.5425 -72.5876 -41.5554 -41.3410 -36.0439 -30.7442 -30.4753 -25.0100
    23.8070  24.7222  28.1752  30.3345  33.9868  37.0215  37.9793  41.6117
    43.3735  46.4891  48.2494  58.2885  58.7786  62.1140  65.7596  72.9404
    74.5852  77.7082  78.4447  83.8630  86.7851  88.7474

          k = 0.1917 0.3320 0.0000 (   955 PWs)   bands (ev):

   -81.5481 -72.5925 -41.5459 -41.3346 -36.0306 -30.7277 -30.4822 -25.0132
    23.8312  24.7388  28.2104  30.2637  33.6994  36.9882  37.9887  41.4458
    43.3927  46.2960  48.1414  58.5252  58.9721  62.3310  65.8322  73.3213
    74.9612  78.2130  78.8186  83.8622  86.4336  88.5504

          k = 0.1833 0.3175 0.0000 (   955 PWs)   bands (ev):

   -81.5536 -72.5972 -41.5352 -41.3286 -36.0161 -30.7112 -30.4887 -25.0158
    23.8606  24.7537  28.2495  30.1900  33.3954  36.9672  37.9972  41.2784
    43.4167  46.1052  48.0325  58.5948  59.2450  62.6410  65.9657  73.6867
    75.3684  78.7021  79.1765  83.8983  86.0907  88.3809

          k = 0.1750 0.3031 0.0000 (   959 PWs)   bands (ev):

   -81.5594 -72.6022 -41.5234 -41.3233 -36.0012 -30.6950 -30.4949 -25.0187
    23.8940  24.7668  28.2920  30.1139  33.0779  36.9563  38.0044  41.1051
    43.4445  45.9178  47.9212  58.5902  59.5044  63.0382  66.1607  74.0374
    75.8024  79.1397  79.5436  83.9711  85.7610  88.2401

          k = 0.1667 0.2887 0.0000 (   963 PWs)   bands (ev):

   -81.5652 -72.6072 -41.5110 -41.3185 -35.9862 -30.6793 -30.5010 -25.0223
    23.9306  24.7782  28.3372  30.0359  32.7519  36.9547  38.0106  40.9238
    43.4754  45.7383  47.8054  58.5517  59.7167  63.5110  66.4167  74.3746
    76.2570  79.4724  79.9667  84.0728  85.4525  88.1324

          k = 0.1583 0.2742 0.0000 (   963 PWs)   bands (ev):

   -81.5711 -72.6123 -41.4974 -41.3142 -35.9705 -30.6637 -30.5062 -25.0251
    23.9734  24.7883  28.3847  29.9569  32.4255  36.9623  38.0160  40.7355
    43.5101  45.5690  47.6886  58.4944  59.8824  64.0466  66.7320  74.7010
    76.7275  79.7056  80.4392  84.1784  85.1836  88.0675

          k = 0.1500 0.2598 0.0000 (   963 PWs)   bands (ev):

   -81.5773 -72.6177 -41.4833 -41.3102 -35.9548 -30.6486 -30.5107 -25.0284
    24.0203  24.7984  28.4340  29.8776  32.0998  36.9781  38.0218  40.5371
    43.5474  45.4103  47.5684  58.4255  60.0056  64.6317  67.1029  75.0161
    77.2070  79.8767  80.9231  84.2321  84.9954  88.0530

          k = 0.1417 0.2454 0.0000 (   963 PWs)   bands (ev):

   -81.5832 -72.6228 -41.4685 -41.3068 -35.9388 -30.6341 -30.5147 -25.0313
    24.0707  24.8057  28.4840  29.7979  31.7801  36.9987  38.0251  40.3331
    43.5877  45.2641  47.4462  58.3502  60.0929  65.2553  67.5247  75.3183
    77.6889  80.0121  81.3957  84.1676  84.9387  88.0996

          k = 0.1333 0.2309 0.0000 (   963 PWs)   bands (ev):

   -81.5891 -72.6279 -41.4534 -41.3039 -35.9228 -30.6204 -30.5181 -25.0341
    24.1241  24.8117  28.5339  29.7184  31.4691  37.0240  38.0275  40.1233
    43.6304  45.1299  47.3223  58.2718  60.1516  65.9092  67.9919  75.6049
    78.1673  80.1293  81.8356  84.0158  84.9734  88.2106

          k = 0.1250 0.2165 0.0000 (   971 PWs)   bands (ev):

   -81.5950 -72.6329 -41.4387 -41.3016 -35.9078 -30.6077 -30.5214 -25.0379
    24.1781  24.8161  28.5827  29.6396  31.1672  37.0517  38.0284  39.9060
    43.6747  45.0062  47.1961  58.1918  60.1859  66.5872  68.4987  75.8713
    78.6352  80.2422  82.2096  83.8658  85.0214  88.3764

          k = 0.1167 0.2021 0.0000 (   967 PWs)   bands (ev):

   -81.6007 -72.6378 -41.4233 -41.2993 -35.8918 -30.5954 -30.5235 -25.0402
    24.2366  24.8205  28.6299  29.5626  30.8834  37.0841  38.0297  39.6914
    43.7216  44.8949  47.0734  58.1143  60.2056  67.2853  69.0411  76.1136
    79.0872  80.3646  82.4630  83.7955  85.0564  88.5723

          k = 0.1083 0.1876 0.0000 (   967 PWs)   bands (ev):

   -81.6062 -72.6425 -41.4082 -41.2975 -35.8767 -30.5841 -30.5252 -25.0429
    24.2958  24.8234  28.6731  29.4867  30.6168  37.1170  38.0298  39.4786
    43.7690  44.7939  46.9499  58.0376  60.2104  67.9995  69.6125  76.3264
    79.5123  80.5040  82.5423  83.8493  85.0862  88.7526

          k = 0.1000 0.1732 0.0000 (   963 PWs)   bands (ev):

   -81.6113 -72.6469 -41.3932 -41.2958 -35.8615 -30.5734 -30.5260 -25.0446
    24.3561  24.8258  28.7109  29.4144  30.3712  37.1518  38.0300  39.2719
    43.8170  44.7024  46.8302  57.9649  60.2094  68.7275  70.2093  76.5087
    79.9002  80.6657  82.4817  83.9721  85.1412  88.8597

          k = 0.0917 0.1588 0.0000 (   963 PWs)   bands (ev):

   -81.6164 -72.6512 -41.3789 -41.2948 -35.8476 -30.5640 -30.5266 -25.0470
    24.4165  24.8265  28.7390  29.3450  30.1490  37.1853  38.0276  39.0695
    43.8649  44.6199  46.7141  57.8957  60.1967  69.4666  70.8248  76.6552
    80.2328  80.8459  82.3630  84.0630  85.2496  88.8242

          k = 0.0833 0.1443 0.0000 (   961 PWs)   bands (ev):

   -81.6212 -72.6553 -41.3649 -41.2939 -35.8341 -30.5554 -30.5265 -25.0489
    24.4764  24.8270  28.7536  29.2837  29.9531  37.2183  38.0261  38.8803
    43.9118  44.5454  46.6029  57.8306  60.1813  70.2149  71.4583  76.7699
    80.4930  81.0240  82.2575  84.0852  85.4076  88.5892

          k = 0.0750 0.1299 0.0000 (   957 PWs)   bands (ev):

   -81.6254 -72.6589 -41.3516 -41.2930 -35.8213 -30.5477 -30.5259 -25.0502
    24.5339  24.8271  28.7487  29.2356  29.7850  37.2473  38.0246  38.7058
    43.9575  44.4783  46.4982  57.7708  60.1647  70.9699  72.1020  76.8570
    80.6694  81.1415  82.2313  84.0617  85.5728  88.1702

          k = 0.0667 0.1155 0.0000 (   959 PWs)   bands (ev):

   -81.6296 -72.6626 -41.3395 -41.2925 -35.8098 -30.5409 -30.5251 -25.0518
    24.5883  24.8270  28.7186  29.2045  29.6452  37.2700  38.0224  38.5461
    44.0004  44.4182  46.4011  57.7162  60.1444  71.7292  72.7520  76.9182
    80.7515  81.1330  82.3387  84.0280  85.6955  87.6571

          k = 0.0583 0.1010 0.0000 (   959 PWs)   bands (ev):

   -81.6330 -72.6654 -41.3286 -41.2922 -35.7994 -30.5353 -30.5243 -25.0531
    24.6385  24.8257  28.6657  29.1911  29.5326  37.2849  38.0194  38.4058
    44.0402  44.3652  46.3129  57.6682  60.1241  72.4897  73.4039  76.9603
    80.7323  81.0042  82.5566  84.0083  85.7213  87.1587

          k = 0.0500 0.0866 0.0000 (   963 PWs)   bands (ev):

   -81.6364 -72.6683 -41.3190 -41.2919 -35.7908 -30.5307 -30.5233 -25.0550
    24.6837  24.8248  28.5978  29.1912  29.4434  37.2917  38.0174  38.2872
    44.0768  44.3188  46.2323  57.6236  60.1019  73.2479  74.0530  76.9864
    80.6122  80.7961  82.8265  84.0139  85.5770  86.7902

          k = 0.0417 0.0722 0.0000 (   967 PWs)   bands (ev):

   -81.6395 -72.6711 -41.3107 -41.2917 -35.7840 -30.5269 -30.5223 -25.0575
    24.7239  24.8239  28.5246  29.1988  29.3743  37.2903  38.0155  38.1927
    44.1094  44.2796  46.1598  57.5835  60.0789  73.9980  74.6927  77.0011
    80.3998  80.5299  83.1062  84.0434  85.2504  86.6020

          k = 0.0333 0.0577 0.0000 (   971 PWs)   bands (ev):

   -81.6419 -72.6731 -41.3040 -41.2915 -35.7781 -30.5239 -30.5214 -25.0592
    24.7572  24.8230  28.4565  29.2093  29.3213  37.2823  38.0139  38.1187
    44.1368  44.2467  46.1009  57.5513  60.0599  74.7312  75.3145  77.0094
    80.1092  80.2094  83.3676  84.0858  84.8598  86.5218

          k = 0.0250 0.0433 0.0000 (   971 PWs)   bands (ev):

   -81.6437 -72.6746 -41.2985 -41.2914 -35.7732 -30.5217 -30.5204 -25.0602
    24.7847  24.8222  28.3994  29.2197  29.2826  37.2709  38.0126  38.0685
    44.1590  44.2214  46.0548  57.5264  60.0457  75.4328  75.9048  77.0135
    79.7648  79.8426  83.5850  84.1312  84.5160  86.4787

          k = 0.0167 0.0289 0.0000 (   971 PWs)   bands (ev):

   -81.6450 -72.6758 -41.2945 -41.2914 -35.7696 -30.5201 -30.5196 -25.0608
    24.8048  24.8217  28.3565  29.2281  29.2561  37.2594  38.0116  38.0357
    44.1753  44.2032  46.0214  57.5085  60.0353  76.0726  76.4367  77.0151
    79.3994  79.4495  83.7199  84.1697  84.2893  86.4491

          k = 0.0083 0.0144 0.0000 (   975 PWs)   bands (ev):

   -81.6459 -72.6766 -41.2922 -41.2915 -35.7682 -30.5196 -30.5193 -25.0621
    24.8168  24.8205  28.3281  29.2336  29.2405  37.2498  38.0102  38.0168
    44.1852  44.1921  45.9983  57.4958  60.0266  76.5791  76.8489  77.0160
    79.0788  79.0956  83.7465  84.1946  84.2096  86.4267

          k = 0.0000 0.0000 0.0000 (   965 PWs)   bands (ev):

   -81.6461 -72.6767 -41.2914 -41.2914 -35.7670 -30.5191 -30.5191 -25.0618
    24.8222  24.8222  28.3194  29.2363  29.2363  37.2507  38.0123  38.0123
    44.1893  44.1893  45.9903  57.4919  60.0261  76.7934  77.0182  77.0182
    78.9371  78.9371  83.7365  84.2042  84.2042  86.4192

          k = 0.0125 0.0072 0.0000 (   977 PWs)   bands (ev):

   -81.6460 -72.6767 -41.2921 -41.2915 -35.7684 -30.5195 -30.5195 -25.0627
    24.8172  24.8205  28.3250  29.2340  29.2392  37.2485  38.0101  38.0147
    44.1860  44.1912  45.9952  57.4940  60.0248  76.6286  76.8904  77.0151
    79.0438  79.0600  83.7444  84.1966  84.2068  86.4235

          k = 0.0250 0.0144 0.0000 (   973 PWs)   bands (ev):

   -81.6453 -72.6761 -41.2937 -41.2914 -35.7692 -30.5201 -30.5195 -25.0614
    24.8089  24.8210  28.3468  29.2300  29.2507  37.2560  38.0108  38.0294
    44.1786  44.1995  46.0132  57.5040  60.0319  76.2184  76.5781  77.0073
    79.2878  79.3633  83.7362  84.1783  84.2539  86.4414

          k = 0.0375 0.0217 0.0000 (   973 PWs)   bands (ev):

   -81.6443 -72.6752 -41.2967 -41.2915 -35.7719 -30.5211 -30.5202 -25.0609
    24.7937  24.8214  28.3794  29.2242  29.2698  37.2654  38.0116  38.0533
    44.1663  44.2132  46.0383  57.5174  60.0398  75.6741  76.1739  76.9933
    79.5545  79.7497  83.6505  84.1500  84.4049  86.4639

          k = 0.0500 0.0289 0.0000 (   973 PWs)   bands (ev):

   -81.6430 -72.6740 -41.3009 -41.2915 -35.7757 -30.5226 -30.5211 -25.0602
    24.7727  24.8221  28.4232  29.2179  29.2963  37.2759  38.0127  38.0892
    44.1494  44.2323  46.0732  57.5361  60.0507  75.0594  75.7273  76.9725
    79.7856  80.1668  83.4893  84.1169  84.6566  86.4925

          k = 0.0625 0.0361 0.0000 (   973 PWs)   bands (ev):

   -81.6412 -72.6725 -41.3063 -41.2916 -35.7804 -30.5245 -30.5223 -25.0593
    24.7463  24.8230  28.4758  29.2135  29.3303  37.2848  38.0141  38.1393
    44.1281  44.2568  46.1174  57.5600  60.0643  74.4049  75.2601  76.9437
    79.9589  80.5869  83.2795  84.0865  84.9683  86.5299

          k = 0.0750 0.0433 0.0000 (   967 PWs)   bands (ev):

   -81.6389 -72.6705 -41.3124 -41.2916 -35.7854 -30.5268 -30.5235 -25.0572
    24.7158  24.8243  28.5346  29.2154  29.3717  37.2906  38.0162  38.2087
    44.1034  44.2867  46.1724  57.5904  60.0830  73.7272  74.7824  76.9060
    80.0722  80.9910  83.0431  84.0705  85.2895  86.5902

          k = 0.0875 0.0505 0.0000 (   963 PWs)   bands (ev):

   -81.6364 -72.6684 -41.3197 -41.2916 -35.7917 -30.5293 -30.5250 -25.0554
    24.6804  24.8259  28.5910  29.2297  29.4202  37.2905  38.0188  38.2950
    44.0748  44.3221  46.2344  57.6245  60.1021  73.0365  74.2995  76.8561
    80.1241  81.3606  82.7924  84.0852  85.5497  86.7004

          k = 0.1000 0.0577 0.0000 (   961 PWs)   bands (ev):

   -81.6336 -72.6660 -41.3281 -41.2917 -35.7995 -30.5324 -30.5270 -25.0543
    24.6404  24.8274  28.6360  29.2650  29.4751  37.2836  38.0212  38.3977
    44.0436  44.3621  46.3028  57.6611  60.1195  72.3392  73.8145  76.7912
    80.1220  81.6674  82.5396  84.1515  85.6829  86.8884

          k = 0.1125 0.0650 0.0000 (   963 PWs)   bands (ev):

   -81.6305 -72.6634 -41.3379 -41.2919 -35.8084 -30.5358 -30.5294 -25.0531
    24.5953  24.8290  28.6622  29.3290  29.5366  37.2697  38.0240  38.5149
    44.0096  44.4069  46.3782  57.7023  60.1381  71.6409  73.3293  76.7086
    80.0683  81.8909  82.2941  84.2919  85.6799  87.1254

          k = 0.1250 0.0722 0.0000 (   961 PWs)   bands (ev):

   -81.6270 -72.6604 -41.3482 -41.2920 -35.8177 -30.5395 -30.5316 -25.0512
    24.5484  24.8309  28.6666  29.4264  29.6043  37.2515  38.0270  38.6477
    43.9744  44.4564  46.4611  57.7478  60.1585  70.9461  72.8456  76.6053
    79.9701  82.0205  82.0650  84.5167  85.5787  87.3511

          k = 0.1375 0.0794 0.0000 (   957 PWs)   bands (ev):

   -81.6230 -72.6568 -41.3598 -41.2921 -35.8274 -30.5434 -30.5345 -25.0489
    24.4981  24.8335  28.6509  29.5546  29.6782  37.2257  38.0312  38.7953
    43.9385  44.5107  46.5513  57.7966  60.1765  70.2585  72.3645  76.4764
    79.8293  81.8543  82.0657  84.8178  85.4131  87.5301

          k = 0.1500 0.0866 0.0000 (   957 PWs)   bands (ev):

   -81.6190 -72.6535 -41.3719 -41.2922 -35.8383 -30.5477 -30.5371 -25.0469
    24.4459  24.8357  28.6195  29.7085  29.7574  37.1985  38.0349  38.9526
    43.9031  44.5690  46.6444  57.8464  60.1949  69.5818  71.8867  76.3201
    79.6547  81.6629  82.0443  85.1689  85.2046  87.6529

          k = 0.1625 0.0938 0.0000 (   961 PWs)   bands (ev):

   -81.6149 -72.6499 -41.3848 -41.2924 -35.8503 -30.5522 -30.5401 -25.0453
    24.3910  24.8380  28.5766  29.8416  29.8829  37.1668  38.0387  39.1191
    43.8687  44.6313  46.7396  57.8951  60.2100  68.9192  71.4131  76.1331
    79.4493  81.4881  81.9784  84.9728  85.5479  87.7284

          k = 0.1750 0.1010 0.0000 (   965 PWs)   bands (ev):

   -81.6105 -72.6461 -41.3983 -41.2927 -35.8629 -30.5570 -30.5434 -25.0437
    24.3347  24.8400  28.5252  29.9304  30.0759  37.1311  38.0425  39.2920
    43.8378  44.6973  46.8382  57.9428  60.2214  68.2744  70.9441  75.9139
    79.2176  81.3281  81.8831  84.7332  85.9340  87.7663

          k = 0.1875 0.1083 0.0000 (   963 PWs)   bands (ev):

   -81.6058 -72.6421 -41.4122 -41.2928 -35.8754 -30.5620 -30.5463 -25.0414
    24.2793  24.8429  28.4680  30.0237  30.2860  37.0970  38.0472  39.4696
    43.8119  44.7671  46.9402  57.9874  60.2327  67.6534  70.4816  75.6641
    78.9606  81.1819  81.7705  84.4992  86.3102  87.7743

          k = 0.2000 0.1155 0.0000 (   975 PWs)   bands (ev):

   -81.6015 -72.6385 -41.4271 -41.2936 -35.8904 -30.5678 -30.5500 -25.0416
    24.2216  24.8444  28.4055  30.1205  30.5062  37.0581  38.0500  39.6462
    43.7922  44.8397  47.0375  58.0203  60.2309  67.0587  70.0234  75.3830
    78.6743  81.0494  81.6423  84.2795  86.6571  87.7558

          k = 0.2125 0.1227 0.0000 (   973 PWs)   bands (ev):

   -81.5966 -72.6344 -41.4415 -41.2938 -35.9036 -30.5730 -30.5529 -25.0389
    24.1665  24.8473  28.3400  30.2208  30.7439  37.0235  38.0547  39.8249
    43.7818  44.9155  47.1409  58.0455  60.2374  66.4974  69.5748  75.0789
    78.3570  80.9348  81.5106  84.0831  86.9589  87.7188

          k = 0.2250 0.1299 0.0000 (   973 PWs)   bands (ev):

   -81.5917 -72.6301 -41.4565 -41.2941 -35.9173 -30.5784 -30.5560 -25.0365
    24.1114  24.8502  28.2718  30.3238  30.9924  36.9891  38.0597  39.9971
    43.7819  44.9939  47.2432  58.0523  60.2424  65.9739  69.1344  74.7536
    78.0047  80.8391  81.3753  83.9118  87.1969  87.6650

          k = 0.2375 0.1371 0.0000 (   977 PWs)   bands (ev):

   -81.5867 -72.6258 -41.4717 -41.2946 -35.9318 -30.5843 -30.5592 -25.0349
    24.0570  24.8513  28.2014  30.4288  31.2497  36.9551  38.0637  40.1607
    43.7952  45.0745  47.3414  58.0323  60.2477  65.4937  68.7029  74.4114
    77.6171  80.7634  81.2354  83.7663  87.3562  87.5987

          k = 0.2500 0.1443 0.0000 (   977 PWs)   bands (ev):

   -81.5816 -72.6215 -41.4869 -41.2948 -35.9459 -30.5899 -30.5622 -25.0326
    24.0049  24.8535  28.1299  30.5355  31.5177  36.9237  38.0682  40.3138
    43.8244  45.1566  47.4381  57.9795  60.2594  65.0628  68.2810  74.0583
    77.1972  80.7074  81.0980  83.6464  87.4328  87.5258

          k = 0.2625 0.1516 0.0000 (   973 PWs)   bands (ev):

   -81.5765 -72.6170 -41.5020 -41.2948 -35.9597 -30.5953 -30.5653 -25.0299
    23.9538  24.8571  28.0581  30.6433  31.7930  36.8951  38.0746  40.4517
    43.8712  45.2405  47.5334  57.8858  60.2825  64.6858  67.8703  73.6975
    76.7490  80.6689  80.9640  83.5496  87.4323  87.4481

          k = 0.2750 0.1588 0.0000 (   969 PWs)   bands (ev):

   -81.5715 -72.6126 -41.5169 -41.2950 -35.9732 -30.6006 -30.5682 -25.0271
    23.9050  24.8606  27.9861  30.7515  32.0752  36.8702  38.0802  40.5713
    43.9375  45.3256  47.6253  57.7449  60.3200  64.3657  67.4712  73.3332
    76.2781  80.6447  80.8332  83.4736  87.3669  87.3691

          k = 0.2875 0.1660 0.0000 (   961 PWs)   bands (ev):

   -81.5661 -72.6079 -41.5315 -41.2950 -35.9854 -30.6055 -30.5708 -25.0228
    23.8583  24.8647  27.9149  30.8591  32.3641  36.8493  38.0864  40.6738
    44.0246  45.4107  47.7178  57.5553  60.3778  64.1046  67.0853  72.9693
    75.7906  80.6335  80.7072  83.4179  87.2555  87.2927

          k = 0.3000 0.1732 0.0000 (   958 PWs)   bands (ev):

   -81.5612 -72.6037 -41.5458 -41.2951 -35.9985 -30.6107 -30.5730 -25.0197
    23.8152  24.8676  27.8443  30.9657  32.6535  36.8342  38.0914  40.7525
    44.1298  45.4956  47.8019  57.3184  60.4487  63.8991  66.7127  72.6078
    75.2916  80.5843  80.6275  83.3786  87.1119  87.2178

          k = 0.3125 0.1804 0.0000 (   958 PWs)   bands (ev):

   -81.5565 -72.5996 -41.5600 -41.2954 -36.0116 -30.6158 -30.5758 -25.0175
    23.7725  24.8704  27.7751  31.0706  32.9407  36.8246  38.0962  40.8099
    44.2504  45.5799  47.8796  57.0410  60.5318  63.7477  66.3547  72.2489
    74.7871  80.4665  80.6257  83.3548  86.9489  87.1461

          k = 0.3250 0.1876 0.0000 (   958 PWs)   bands (ev):

   -81.5518 -72.5957 -41.5737 -41.2956 -36.0244 -30.6207 -30.5785 -25.0153
    23.7324  24.8731  27.7079  31.1730  33.2250  36.8227  38.1009  40.8476
    44.3843  45.6630  47.9530  56.7316  60.6256  63.6470  66.0125  71.8953
    74.2826  80.3543  80.6255  83.3456  86.7759  87.0791

          k = 0.3375 0.1949 0.0000 (   954 PWs)   bands (ev):

   -81.5472 -72.5915 -41.5868 -41.2956 -36.0357 -30.6253 -30.5809 -25.0122
    23.6948  24.8762  27.6431  31.2724  33.5052  36.8298  38.1059  40.8694
    44.5284  45.7443  48.0246  56.3999  60.7265  63.5952  65.6874  71.5483
    73.7839  80.2487  80.6258  83.3510  86.5999  87.0196

          k = 0.3500 0.2021 0.0000 (   950 PWs)   bands (ev):

   -81.5429 -72.5878 -41.5991 -41.2958 -36.0472 -30.6298 -30.5832 -25.0100
    23.6607  24.8788  27.5812  31.3681  33.7746  36.8490  38.1102  40.8734
    44.6767  45.8233  48.0919  56.0544  60.8286  63.5860  65.3802  71.2061
    73.2962  80.1493  80.6234  83.3675  86.4253  86.9628

          k = 0.3625 0.2093 0.0000 (   950 PWs)   bands (ev):

   -81.5389 -72.5844 -41.6110 -41.2959 -36.0582 -30.6341 -30.5854 -25.0081
    23.6287  24.8812  27.5224  31.4590  34.0296  36.8805  38.1141  40.8633
    44.8233  45.8991  48.1572  55.7038  60.9276  63.6188  65.0922  70.8677
    72.8256  80.0567  80.6181  83.3943  86.2561  86.9101

          k = 0.3750 0.2165 0.0000 (   948 PWs)   bands (ev):

   -81.5351 -72.5811 -41.6219 -41.2961 -36.0685 -30.6381 -30.5875 -25.0063
    23.5998  24.8834  27.4673  31.5448  34.2671  36.9271  38.1179  40.8417
    44.9648  45.9713  48.2225  55.3559  61.0199  63.6919  64.8245  70.5309
    72.3792  79.9713  80.6102  83.4298  86.0952  86.8621

          k = 0.3875 0.2237 0.0000 (   936 PWs)   bands (ev):

   -81.5311 -72.5776 -41.6318 -41.2957 -36.0766 -30.6414 -30.5890 -25.0028
    23.5746  24.8866  27.4165  31.6252  34.4862  36.9912  38.1231  40.8131
    45.0989  46.0396  48.2925  55.0177  61.1037  63.8049  64.5785  70.1942
    71.9653  79.8939  80.6005  83.4745  85.9456  86.8191

          k = 0.4000 0.2309 0.0000 (   936 PWs)   bands (ev):

   -81.5280 -72.5749 -41.6412 -41.2957 -36.0851 -30.6445 -30.5909 -25.0012
    23.5505  24.8893  27.3697  31.6986  34.6763  37.0700  38.1264  40.7745
    45.2155  46.1023  48.3618  54.6938  61.1730  63.9513  64.3546  69.8506
    71.5901  79.8246  80.5873  83.5211  85.8074  86.7800

          k = 0.4125 0.2382 0.0000 (   936 PWs)   bands (ev):

   -81.5252 -72.5724 -41.6495 -41.2959 -36.0929 -30.6475 -30.5924 -24.9999
    23.5298  24.8908  27.3277  31.7649  34.8372  37.1650  38.1290  40.7294
    45.3155  46.1594  48.4337  54.3912  61.2315  64.1297  64.1543  69.4988
    71.2598  79.7620  80.5727  83.5696  85.6827  86.7444

          k = 0.4250 0.2454 0.0000 (   932 PWs)   bands (ev):

   -81.5226 -72.5702 -41.6569 -41.2957 -36.0995 -30.6499 -30.5939 -24.9984
    23.5117  24.8934  27.2912  31.8239  34.9698  37.2720  38.1326  40.6818
    45.3977  46.2106  48.5083  54.1143  61.2782  63.9786  64.3357  69.1412
    70.9787  79.7085  80.5580  83.6180  85.5731  86.7131

          k = 0.4375 0.2526 0.0000 (   930 PWs)   bands (ev):

   -81.5205 -72.5684 -41.6631 -41.2958 -36.1052 -30.6521 -30.5949 -24.9972
    23.4972  24.8946  27.2596  31.8744  35.0759  37.3848  38.1345  40.6318
    45.4622  46.2547  48.5832  53.8679  61.3144  63.8282  64.5626  68.7821
    70.7462  79.6621  80.5440  83.6636  85.4786  86.6858

          k = 0.4500 0.2598 0.0000 (   930 PWs)   bands (ev):

   -81.5188 -72.5669 -41.6682 -41.2959 -36.1101 -30.6540 -30.5958 -24.9964
    23.4849  24.8956  27.2332  31.9163  35.1560  37.4947  38.1360  40.5833
    45.5096  46.2915  48.6537  53.6566  61.3413  63.7039  64.8017  68.4311
    70.5610  79.6240  80.5308  83.7042  85.4005  86.6627

          k = 0.4625 0.2670 0.0000 (   930 PWs)   bands (ev):

   -81.5174 -72.5657 -41.6723 -41.2959 -36.1139 -30.6555 -30.5966 -24.9958
    23.4754  24.8963  27.2125  31.9494  35.2144  37.5931  38.1372  40.5397
    45.5427  46.3207  48.7161  53.4855  61.3604  63.6065  65.0401  68.1032
    70.4204  79.5943  80.5197  83.7381  85.3392  86.6443

          k = 0.4750 0.2742 0.0000 (   930 PWs)   bands (ev):

   -81.5164 -72.5649 -41.6752 -41.2960 -36.1166 -30.6566 -30.5971 -24.9953
    23.4686  24.8969  27.1977  31.9732  35.2538  37.6714  38.1381  40.5049
    45.5639  46.3417  48.7657  53.3590  61.3731  63.5366  65.2568  67.8213
    70.3219  79.5730  80.5113  83.7635  85.2952  86.6309

          k = 0.4875 0.2815 0.0000 (   924 PWs)   bands (ev):

   -81.5157 -72.5643 -41.6765 -41.2959 -36.1171 -30.6571 -30.5969 -24.9938
    23.4660  24.8975  27.1888  31.9876  35.2786  37.7257  38.1391  40.4829
    45.5758  46.3545  48.8039  53.2819  61.3813  63.4945  65.4188  67.6219
    70.2645  79.5605  80.5066  83.7796  85.2687  86.6238

          k = 0.5000 0.2887 0.0000 (   924 PWs)   bands (ev):

   -81.5155 -72.5641 -41.6771 -41.2959 -36.1177 -30.6573 -30.5970 -24.9938
    23.4646  24.8976  27.1858  31.9924  35.2860  37.7432  38.1393  40.4749
    45.5794  46.3588  48.8149  53.2557  61.3837  63.4805  65.4801  67.5472
    70.2452  79.5562  80.5048  83.7849  85.2599  86.6210

          k = 0.4875 0.2815 0.0000 (   924 PWs)   bands (ev):

   -81.5157 -72.5643 -41.6765 -41.2959 -36.1171 -30.6571 -30.5969 -24.9938
    23.4660  24.8975  27.1888  31.9876  35.2786  37.7257  38.1391  40.4829
    45.5758  46.3545  48.8039  53.2819  61.3813  63.4945  65.4188  67.6219
    70.2645  79.5605  80.5066  83.7796  85.2687  86.6238

          k = 0.4750 0.2742 0.0000 (   930 PWs)   bands (ev):

   -81.5164 -72.5649 -41.6752 -41.2960 -36.1166 -30.6566 -30.5971 -24.9953
    23.4686  24.8969  27.1977  31.9732  35.2538  37.6714  38.1381  40.5049
    45.5639  46.3417  48.7657  53.3590  61.3731  63.5366  65.2568  67.8213
    70.3219  79.5730  80.5113  83.7635  85.2952  86.6309

          k = 0.4625 0.2670 0.0000 (   930 PWs)   bands (ev):

   -81.5174 -72.5657 -41.6723 -41.2959 -36.1139 -30.6555 -30.5966 -24.9958
    23.4754  24.8963  27.2125  31.9494  35.2144  37.5931  38.1372  40.5397
    45.5427  46.3207  48.7161  53.4855  61.3604  63.6065  65.0401  68.1032
    70.4204  79.5943  80.5197  83.7381  85.3392  86.6443

          k = 0.4500 0.2598 0.0000 (   930 PWs)   bands (ev):

   -81.5188 -72.5669 -41.6682 -41.2959 -36.1101 -30.6540 -30.5958 -24.9964
    23.4849  24.8956  27.2332  31.9163  35.1560  37.4947  38.1360  40.5833
    45.5096  46.2915  48.6537  53.6566  61.3413  63.7039  64.8017  68.4311
    70.5610  79.6240  80.5308  83.7042  85.4005  86.6627

          k = 0.4375 0.2526 0.0000 (   930 PWs)   bands (ev):

   -81.5205 -72.5684 -41.6631 -41.2958 -36.1052 -30.6521 -30.5949 -24.9972
    23.4972  24.8946  27.2596  31.8744  35.0759  37.3848  38.1345  40.6318
    45.4622  46.2547  48.5832  53.8679  61.3144  63.8282  64.5626  68.7821
    70.7462  79.6621  80.5440  83.6636  85.4786  86.6858

          k = 0.4250 0.2454 0.0000 (   932 PWs)   bands (ev):

   -81.5226 -72.5702 -41.6569 -41.2957 -36.0995 -30.6499 -30.5939 -24.9984
    23.5117  24.8934  27.2912  31.8239  34.9698  37.2720  38.1326  40.6818
    45.3977  46.2106  48.5083  54.1143  61.2782  63.9786  64.3357  69.1412
    70.9787  79.7085  80.5580  83.6180  85.5731  86.7131

          k = 0.4125 0.2382 0.0000 (   936 PWs)   bands (ev):

   -81.5252 -72.5724 -41.6495 -41.2959 -36.0929 -30.6475 -30.5924 -24.9999
    23.5298  24.8908  27.3277  31.7649  34.8372  37.1650  38.1290  40.7294
    45.3155  46.1594  48.4337  54.3912  61.2315  64.1297  64.1543  69.4988
    71.2598  79.7620  80.5727  83.5696  85.6827  86.7444

          k = 0.4000 0.2309 0.0000 (   936 PWs)   bands (ev):

   -81.5280 -72.5749 -41.6412 -41.2957 -36.0851 -30.6445 -30.5909 -25.0012
    23.5505  24.8893  27.3697  31.6986  34.6763  37.0700  38.1264  40.7745
    45.2155  46.1023  48.3618  54.6938  61.1730  63.9513  64.3546  69.8506
    71.5901  79.8246  80.5873  83.5211  85.8074  86.7800

          k = 0.3875 0.2237 0.0000 (   936 PWs)   bands (ev):

   -81.5311 -72.5776 -41.6318 -41.2957 -36.0766 -30.6414 -30.5890 -25.0028
    23.5746  24.8866  27.4165  31.6252  34.4862  36.9912  38.1231  40.8131
    45.0989  46.0396  48.2925  55.0177  61.1037  63.8049  64.5785  70.1942
    71.9653  79.8939  80.6005  83.4745  85.9456  86.8191

          k = 0.3750 0.2165 0.0000 (   948 PWs)   bands (ev):

   -81.5351 -72.5811 -41.6219 -41.2961 -36.0685 -30.6381 -30.5875 -25.0063
    23.5998  24.8834  27.4673  31.5448  34.2671  36.9271  38.1179  40.8417
    44.9648  45.9713  48.2225  55.3559  61.0199  63.6919  64.8245  70.5309
    72.3792  79.9713  80.6102  83.4298  86.0952  86.8621

          k = 0.3625 0.2093 0.0000 (   950 PWs)   bands (ev):

   -81.5389 -72.5844 -41.6110 -41.2959 -36.0582 -30.6341 -30.5854 -25.0081
    23.6287  24.8812  27.5224  31.4590  34.0296  36.8805  38.1141  40.8633
    44.8233  45.8991  48.1572  55.7038  60.9276  63.6188  65.0922  70.8677
    72.8256  80.0567  80.6181  83.3943  86.2561  86.9101

          k = 0.3500 0.2021 0.0000 (   950 PWs)   bands (ev):

   -81.5429 -72.5878 -41.5991 -41.2958 -36.0472 -30.6298 -30.5832 -25.0100
    23.6607  24.8788  27.5812  31.3681  33.7746  36.8490  38.1102  40.8734
    44.6767  45.8233  48.0919  56.0544  60.8286  63.5860  65.3802  71.2061
    73.2962  80.1493  80.6234  83.3675  86.4253  86.9628

          k = 0.3375 0.1949 0.0000 (   954 PWs)   bands (ev):

   -81.5472 -72.5915 -41.5868 -41.2956 -36.0357 -30.6253 -30.5809 -25.0122
    23.6948  24.8762  27.6431  31.2724  33.5052  36.8298  38.1059  40.8694
    44.5284  45.7443  48.0246  56.3999  60.7265  63.5952  65.6874  71.5483
    73.7839  80.2487  80.6258  83.3510  86.5999  87.0196

          k = 0.3250 0.1876 0.0000 (   958 PWs)   bands (ev):

   -81.5518 -72.5957 -41.5737 -41.2956 -36.0244 -30.6207 -30.5785 -25.0153
    23.7324  24.8731  27.7079  31.1730  33.2250  36.8227  38.1009  40.8476
    44.3843  45.6630  47.9530  56.7316  60.6256  63.6470  66.0125  71.8953
    74.2826  80.3543  80.6255  83.3456  86.7759  87.0791

          k = 0.3125 0.1804 0.0000 (   958 PWs)   bands (ev):

   -81.5565 -72.5996 -41.5600 -41.2954 -36.0116 -30.6158 -30.5758 -25.0175
    23.7725  24.8704  27.7751  31.0706  32.9407  36.8246  38.0962  40.8099
    44.2504  45.5799  47.8796  57.0410  60.5318  63.7477  66.3547  72.2489
    74.7871  80.4665  80.6257  83.3548  86.9489  87.1461

          k = 0.3000 0.1732 0.0000 (   958 PWs)   bands (ev):

   -81.5612 -72.6037 -41.5458 -41.2951 -35.9985 -30.6107 -30.5730 -25.0197
    23.8152  24.8676  27.8443  30.9657  32.6535  36.8342  38.0914  40.7525
    44.1298  45.4956  47.8019  57.3184  60.4487  63.8991  66.7127  72.6078
    75.2916  80.5843  80.6275  83.3786  87.1119  87.2178

          k = 0.2875 0.1660 0.0000 (   961 PWs)   bands (ev):

   -81.5661 -72.6079 -41.5315 -41.2950 -35.9854 -30.6055 -30.5708 -25.0228
    23.8583  24.8647  27.9149  30.8591  32.3641  36.8493  38.0864  40.6738
    44.0246  45.4107  47.7178  57.5553  60.3778  64.1046  67.0853  72.9693
    75.7906  80.6335  80.7072  83.4179  87.2555  87.2927

          k = 0.2750 0.1588 0.0000 (   969 PWs)   bands (ev):

   -81.5715 -72.6126 -41.5169 -41.2950 -35.9732 -30.6006 -30.5682 -25.0271
    23.9050  24.8606  27.9861  30.7515  32.0752  36.8702  38.0802  40.5713
    43.9375  45.3256  47.6253  57.7449  60.3200  64.3657  67.4712  73.3332
    76.2781  80.6447  80.8332  83.4736  87.3669  87.3691

          k = 0.2625 0.1516 0.0000 (   973 PWs)   bands (ev):

   -81.5765 -72.6170 -41.5020 -41.2948 -35.9597 -30.5953 -30.5653 -25.0299
    23.9538  24.8571  28.0581  30.6433  31.7930  36.8951  38.0746  40.4517
    43.8712  45.2405  47.5334  57.8858  60.2825  64.6858  67.8703  73.6975
    76.7490  80.6689  80.9640  83.5496  87.4323  87.4481

          k = 0.2500 0.1443 0.0000 (   977 PWs)   bands (ev):

   -81.5816 -72.6215 -41.4869 -41.2948 -35.9459 -30.5899 -30.5622 -25.0326
    24.0049  24.8535  28.1299  30.5355  31.5177  36.9237  38.0682  40.3138
    43.8244  45.1566  47.4381  57.9795  60.2594  65.0628  68.2810  74.0583
    77.1972  80.7074  81.0980  83.6464  87.4328  87.5258

          k = 0.2375 0.1371 0.0000 (   977 PWs)   bands (ev):

   -81.5867 -72.6258 -41.4717 -41.2946 -35.9318 -30.5843 -30.5592 -25.0349
    24.0570  24.8513  28.2014  30.4288  31.2497  36.9551  38.0637  40.1607
    43.7952  45.0745  47.3414  58.0323  60.2477  65.4937  68.7029  74.4114
    77.6171  80.7634  81.2354  83.7663  87.3562  87.5987

          k = 0.2250 0.1299 0.0000 (   973 PWs)   bands (ev):

   -81.5917 -72.6301 -41.4565 -41.2941 -35.9173 -30.5784 -30.5560 -25.0365
    24.1114  24.8502  28.2718  30.3238  30.9924  36.9891  38.0597  39.9971
    43.7819  44.9939  47.2432  58.0523  60.2424  65.9739  69.1344  74.7536
    78.0047  80.8391  81.3753  83.9118  87.1969  87.6650

          k = 0.2125 0.1227 0.0000 (   973 PWs)   bands (ev):

   -81.5966 -72.6344 -41.4415 -41.2938 -35.9036 -30.5730 -30.5529 -25.0389
    24.1665  24.8473  28.3400  30.2208  30.7439  37.0235  38.0547  39.8249
    43.7818  44.9155  47.1409  58.0455  60.2374  66.4974  69.5748  75.0789
    78.3570  80.9348  81.5106  84.0831  86.9589  87.7188

          k = 0.2000 0.1155 0.0000 (   975 PWs)   bands (ev):

   -81.6015 -72.6385 -41.4271 -41.2936 -35.8904 -30.5678 -30.5500 -25.0416
    24.2216  24.8444  28.4055  30.1205  30.5062  37.0581  38.0500  39.6462
    43.7922  44.8397  47.0375  58.0203  60.2309  67.0587  70.0234  75.3830
    78.6743  81.0494  81.6423  84.2795  86.6571  87.7558

          k = 0.1875 0.1083 0.0000 (   963 PWs)   bands (ev):

   -81.6058 -72.6421 -41.4122 -41.2928 -35.8754 -30.5620 -30.5463 -25.0414
    24.2793  24.8429  28.4680  30.0237  30.2860  37.0970  38.0472  39.4696
    43.8119  44.7671  46.9402  57.9874  60.2327  67.6534  70.4816  75.6641
    78.9606  81.1819  81.7705  84.4992  86.3102  87.7743

          k = 0.1750 0.1010 0.0000 (   965 PWs)   bands (ev):

   -81.6105 -72.6461 -41.3983 -41.2927 -35.8629 -30.5570 -30.5434 -25.0437
    24.3347  24.8400  28.5252  29.9304  30.0759  37.1311  38.0425  39.2920
    43.8378  44.6973  46.8382  57.9428  60.2214  68.2744  70.9441  75.9139
    79.2176  81.3281  81.8831  84.7332  85.9340  87.7663

          k = 0.1625 0.0938 0.0000 (   961 PWs)   bands (ev):

   -81.6149 -72.6499 -41.3848 -41.2924 -35.8503 -30.5522 -30.5401 -25.0453
    24.3910  24.8380  28.5766  29.8416  29.8829  37.1668  38.0387  39.1191
    43.8687  44.6313  46.7396  57.8951  60.2100  68.9192  71.4131  76.1331
    79.4493  81.4881  81.9784  84.9728  85.5479  87.7284

          k = 0.1500 0.0866 0.0000 (   957 PWs)   bands (ev):

   -81.6190 -72.6535 -41.3719 -41.2922 -35.8383 -30.5477 -30.5371 -25.0469
    24.4459  24.8357  28.6195  29.7085  29.7574  37.1985  38.0349  38.9526
    43.9031  44.5690  46.6444  57.8464  60.1949  69.5818  71.8867  76.3201
    79.6547  81.6629  82.0443  85.1689  85.2046  87.6529

          k = 0.1375 0.0794 0.0000 (   957 PWs)   bands (ev):

   -81.6230 -72.6568 -41.3598 -41.2921 -35.8274 -30.5434 -30.5345 -25.0489
    24.4981  24.8335  28.6509  29.5546  29.6782  37.2257  38.0312  38.7953
    43.9385  44.5107  46.5513  57.7966  60.1765  70.2585  72.3645  76.4764
    79.8293  81.8543  82.0657  84.8178  85.4131  87.5301

          k = 0.1250 0.0722 0.0000 (   961 PWs)   bands (ev):

   -81.6270 -72.6604 -41.3482 -41.2920 -35.8177 -30.5395 -30.5316 -25.0512
    24.5484  24.8309  28.6666  29.4264  29.6043  37.2515  38.0270  38.6477
    43.9744  44.4564  46.4611  57.7478  60.1585  70.9461  72.8456  76.6053
    79.9701  82.0205  82.0650  84.5167  85.5787  87.3511

          k = 0.1125 0.0650 0.0000 (   963 PWs)   bands (ev):

   -81.6305 -72.6634 -41.3379 -41.2919 -35.8084 -30.5358 -30.5294 -25.0531
    24.5953  24.8290  28.6622  29.3290  29.5366  37.2697  38.0240  38.5149
    44.0096  44.4069  46.3782  57.7023  60.1381  71.6409  73.3293  76.7086
    80.0683  81.8909  82.2941  84.2919  85.6799  87.1254

          k = 0.1000 0.0577 0.0000 (   961 PWs)   bands (ev):

   -81.6336 -72.6660 -41.3281 -41.2917 -35.7995 -30.5324 -30.5270 -25.0543
    24.6404  24.8274  28.6360  29.2650  29.4751  37.2836  38.0212  38.3977
    44.0436  44.3621  46.3028  57.6611  60.1195  72.3392  73.8145  76.7912
    80.1220  81.6674  82.5396  84.1515  85.6829  86.8884

          k = 0.0875 0.0505 0.0000 (   963 PWs)   bands (ev):

   -81.6364 -72.6684 -41.3197 -41.2916 -35.7917 -30.5293 -30.5250 -25.0554
    24.6804  24.8259  28.5910  29.2297  29.4202  37.2905  38.0188  38.2950
    44.0748  44.3221  46.2344  57.6245  60.1021  73.0365  74.2995  76.8561
    80.1241  81.3606  82.7924  84.0852  85.5497  86.7004

          k = 0.0750 0.0433 0.0000 (   967 PWs)   bands (ev):

   -81.6389 -72.6705 -41.3124 -41.2916 -35.7854 -30.5268 -30.5235 -25.0572
    24.7158  24.8243  28.5346  29.2154  29.3717  37.2906  38.0162  38.2087
    44.1034  44.2867  46.1724  57.5904  60.0830  73.7272  74.7824  76.9060
    80.0722  80.9910  83.0431  84.0705  85.2895  86.5902

          k = 0.0625 0.0361 0.0000 (   973 PWs)   bands (ev):

   -81.6412 -72.6725 -41.3063 -41.2916 -35.7804 -30.5245 -30.5223 -25.0593
    24.7463  24.8230  28.4758  29.2135  29.3303  37.2848  38.0141  38.1393
    44.1281  44.2568  46.1174  57.5600  60.0643  74.4049  75.2601  76.9437
    79.9589  80.5869  83.2795  84.0865  84.9683  86.5299

          k = 0.0500 0.0289 0.0000 (   973 PWs)   bands (ev):

   -81.6430 -72.6740 -41.3009 -41.2915 -35.7757 -30.5226 -30.5211 -25.0602
    24.7727  24.8221  28.4232  29.2179  29.2963  37.2759  38.0127  38.0892
    44.1494  44.2323  46.0732  57.5361  60.0507  75.0594  75.7273  76.9725
    79.7856  80.1668  83.4893  84.1169  84.6566  86.4925

          k = 0.0375 0.0217 0.0000 (   973 PWs)   bands (ev):

   -81.6443 -72.6752 -41.2967 -41.2915 -35.7719 -30.5211 -30.5202 -25.0609
    24.7937  24.8214  28.3794  29.2242  29.2698  37.2654  38.0116  38.0533
    44.1663  44.2132  46.0383  57.5174  60.0398  75.6741  76.1739  76.9933
    79.5545  79.7497  83.6505  84.1500  84.4049  86.4639

          k = 0.0250 0.0144 0.0000 (   973 PWs)   bands (ev):

   -81.6453 -72.6761 -41.2937 -41.2914 -35.7692 -30.5201 -30.5195 -25.0614
    24.8089  24.8210  28.3468  29.2300  29.2507  37.2560  38.0108  38.0294
    44.1786  44.1995  46.0132  57.5040  60.0319  76.2184  76.5781  77.0073
    79.2878  79.3633  83.7362  84.1783  84.2539  86.4414

          k = 0.0125 0.0072 0.0000 (   977 PWs)   bands (ev):

   -81.6460 -72.6767 -41.2921 -41.2915 -35.7684 -30.5195 -30.5195 -25.0627
    24.8172  24.8205  28.3250  29.2340  29.2392  37.2485  38.0101  38.0147
    44.1860  44.1912  45.9952  57.4940  60.0248  76.6286  76.8904  77.0151
    79.0438  79.0600  83.7444  84.1966  84.2068  86.4235

          k = 0.0000 0.0000 0.0000 (   965 PWs)   bands (ev):

   -81.6461 -72.6767 -41.2914 -41.2914 -35.7670 -30.5191 -30.5191 -25.0618
    24.8222  24.8222  28.3194  29.2363  29.2363  37.2507  38.0123  38.0123
    44.1893  44.1893  45.9903  57.4919  60.0261  76.7934  77.0182  77.0182
    78.9371  78.9371  83.7365  84.2042  84.2042  86.4192

     Writing all to output data dir ./SCRATCH/zns_w.save/

     init_run     :      0.06s CPU      0.06s WALL (       1 calls)
     electrons    :     64.31s CPU     65.79s WALL (       1 calls)

     Called by init_run:
     wfcinit      :      0.00s CPU      0.00s WALL (       1 calls)
     wfcinit:wfcr :      1.53s CPU      1.69s WALL (     121 calls)
     potinit      :      0.02s CPU      0.01s WALL (       1 calls)
     hinit0       :      0.03s CPU      0.03s WALL (       1 calls)

     Called by electrons:
     c_bands      :     64.31s CPU     65.79s WALL (       1 calls)
     v_of_rho     :      0.02s CPU      0.01s WALL (       1 calls)
     v_h          :      0.00s CPU      0.00s WALL (       1 calls)
     v_xc         :      0.02s CPU      0.01s WALL (       1 calls)

     Called by c_bands:
     init_us_2    :      0.03s CPU      0.03s WALL (     121 calls)
     init_us_2:cp :      0.03s CPU      0.03s WALL (     121 calls)
     cegterg      :     62.52s CPU     63.76s WALL (     319 calls)

     Called by sum_band:

     Called by *egterg:
     cdiaghg      :      4.78s CPU      5.03s WALL (    5227 calls)
     cegterg:over :      9.72s CPU      9.97s WALL (    5106 calls)
     cegterg:upda :      4.36s CPU      4.27s WALL (    5106 calls)
     cegterg:last :      8.50s CPU      8.03s WALL (    3290 calls)
     h_psi        :     35.12s CPU     36.50s WALL (    5546 calls)
     g_psi        :      0.31s CPU      0.24s WALL (    5106 calls)

     Called by h_psi:
     h_psi:calbec :      4.94s CPU      5.38s WALL (    5546 calls)
     vloc_psi     :     26.52s CPU     26.68s WALL (    5546 calls)
     add_vuspsi   :      3.45s CPU      3.94s WALL (    5546 calls)

     General routines
     calbec       :      4.92s CPU      5.35s WALL (    5546 calls)
     fft          :      0.00s CPU      0.00s WALL (      10 calls)
     fftw         :     23.89s CPU     23.50s WALL (  203986 calls)
     davcio       :      0.00s CPU      0.03s WALL (     242 calls)


     PWSCF        :   1m 4.45s CPU   1m 5.98s WALL


   This run was terminated on:  10:44:18  15Jun2024            

=------------------------------------------------------------------------------=
   JOB DONE.
=------------------------------------------------------------------------------=
