
     Program PWSCF v.7.2 starts on 15Jun2024 at 10:34:47 

     This program is part of the open-source Quantum ESPRESSO suite
     for quantum simulation of materials; please cite
         "P. Giannozzi et al., J. Phys.:Condens. Matter 21 395502 (2009);
         "P. Giannozzi et al., J. Phys.:Condens. Matter 29 465901 (2017);
         "P. Giannozzi et al., J. Chem. Phys. 152 154105 (2020);
          URL http://www.quantum-espresso.org", 
     in publications or presentations arising from this work. More details at
     http://www.quantum-espresso.org/quote

     Serial version
     9087 MiB available memory on the printing compute node when the environment starts

     Waiting for input...
     Reading input from standard input

     Current dimensions of program PWSCF are:
     Max number of different atomic species (ntypx) = 10
     Max number of k-points (npk) =  40000
     Max angular momentum in pseudopotentials (lmaxx) =  4


     G-vector sticks info
     --------------------
     sticks:   dense  smooth     PW     G-vecs:    dense   smooth      PW
     Sum         313     313    109                 7547     7547    1389

     Using Slab Decomposition



     bravais-lattice index     =            4
     lattice parameter (alat)  =       3.8140  a.u.
     unit-cell volume          =      78.8315 (a.u.)^3
     number of atoms/cell      =            4
     number of atomic types    =            2
     number of electrons       =        52.00
     number of Kohn-Sham states=           26
     kinetic-energy cutoff     =      80.0000  Ry
     charge density cutoff     =     320.0000  Ry
     scf convergence threshold =      1.0E-08
     mixing beta               =       0.7000
     number of iterations used =            8  plain     mixing
     Exchange-correlation= PBE
                           (   1   4   3   4   0   0   0)

     celldm(1)=   3.814000  celldm(2)=   0.000000  celldm(3)=   1.640692
     celldm(4)=   0.000000  celldm(5)=   0.000000  celldm(6)=   0.000000

     crystal axes: (cart. coord. in units of alat)
               a(1) = (   1.000000   0.000000   0.000000 )  
               a(2) = (  -0.500000   0.866025   0.000000 )  
               a(3) = (   0.000000   0.000000   1.640692 )  

     reciprocal axes: (cart. coord. in units 2 pi/alat)
               b(1) = (  1.000000  0.577350 -0.000000 )  
               b(2) = (  0.000000  1.154701  0.000000 )  
               b(3) = (  0.000000 -0.000000  0.609499 )  


     PseudoPot. # 1 for Zn read from file:
     /home/paolo/project_labqsm/pseudopotentials/Zn_ONCV_PBE-1.2.upf
     MD5 check sum: 732f41c0cd6489a4b50a33b4ec99a2d3
     Pseudo is Norm-conserving, Zval = 20.0
     Generated using ONCVPSP code by D. R. Hamann
     Using radial grid of  602 points,  6 beta functions with: 
                l(1) =   0
                l(2) =   0
                l(3) =   1
                l(4) =   1
                l(5) =   2
                l(6) =   2

     PseudoPot. # 2 for S  read from file:
     /home/paolo/project_labqsm/pseudopotentials/S_ONCV_PBE-1.2.upf
     MD5 check sum: f9d020296ee6110346977bfd66d424f6
     Pseudo is Norm-conserving, Zval =  6.0
     Generated using ONCVPSP code by D. R. Hamann
     Using radial grid of  602 points,  4 beta functions with: 
                l(1) =   0
                l(2) =   0
                l(3) =   1
                l(4) =   1

     atomic species   valence    mass     pseudopotential
        Zn            20.00    65.38000     Zn( 1.00)
        S              6.00    32.06000     S ( 1.00)

      6 Sym. Ops. (no inversion) found



   Cartesian axes

     site n.     atom                  positions (alat units)
         1           Zn  tau(   1) = (   0.0000000   0.0000000   0.0000000  )
         2           S   tau(   2) = (   0.0000000   0.0000000   0.3723729  )
         3           Zn  tau(   3) = (   0.0000000   0.5773503   0.5000000  )
         4           S   tau(   4) = (   0.0000000   0.5773503   0.8723729  )

     number of k points=    34
                       cart. coord. in units 2pi/alat
        k(    1) = (   0.0000000   0.0000000   0.0000000), wk =   0.0092593
        k(    2) = (   0.0000000   0.0000000   0.1015831), wk =   0.0185185
        k(    3) = (   0.0000000   0.0000000   0.2031663), wk =   0.0185185
        k(    4) = (   0.0000000   0.0000000  -0.3047494), wk =   0.0092593
        k(    5) = (   0.0000000   0.1924501   0.0000000), wk =   0.0555556
        k(    6) = (   0.0000000   0.1924501   0.1015831), wk =   0.0555556
        k(    7) = (   0.0000000   0.1924501   0.2031663), wk =   0.0555556
        k(    8) = (   0.0000000   0.1924501  -0.3047494), wk =   0.0555556
        k(    9) = (   0.0000000   0.3849002   0.0000000), wk =   0.0555556
        k(   10) = (   0.0000000   0.3849002   0.1015831), wk =   0.0555556
        k(   11) = (   0.0000000   0.3849002   0.2031663), wk =   0.0555556
        k(   12) = (   0.0000000   0.3849002  -0.3047494), wk =   0.0555556
        k(   13) = (   0.0000000  -0.5773503   0.0000000), wk =   0.0277778
        k(   14) = (   0.0000000  -0.5773503   0.1015831), wk =   0.0555556
        k(   15) = (   0.0000000  -0.5773503   0.2031663), wk =   0.0555556
        k(   16) = (   0.0000000  -0.5773503  -0.3047494), wk =   0.0277778
        k(   17) = (   0.1666667   0.2886751   0.0000000), wk =   0.0555556
        k(   18) = (   0.1666667   0.2886751   0.1015831), wk =   0.1111111
        k(   19) = (   0.1666667   0.2886751   0.2031663), wk =   0.1111111
        k(   20) = (   0.1666667   0.2886751  -0.3047494), wk =   0.0555556
        k(   21) = (   0.1666667   0.4811252   0.0000000), wk =   0.1111111
        k(   22) = (   0.1666667   0.4811252   0.1015831), wk =   0.1111111
        k(   23) = (   0.1666667   0.4811252   0.2031663), wk =   0.1111111
        k(   24) = (   0.1666667   0.4811252  -0.3047494), wk =   0.1111111
        k(   25) = (   0.3333333   0.5773503   0.0000000), wk =   0.0185185
        k(   26) = (   0.3333333   0.5773503   0.1015831), wk =   0.0370370
        k(   27) = (   0.3333333   0.5773503   0.2031663), wk =   0.0370370
        k(   28) = (   0.3333333   0.5773503  -0.3047494), wk =   0.0185185
        k(   29) = (   0.0000000  -0.1924501   0.1015831), wk =   0.0555556
        k(   30) = (   0.0000000  -0.1924501   0.2031663), wk =   0.0555556
        k(   31) = (   0.0000000  -0.3849002   0.1015831), wk =   0.0555556
        k(   32) = (   0.0000000  -0.3849002   0.2031663), wk =   0.0555556
        k(   33) = (  -0.1666667  -0.4811252   0.1015831), wk =   0.1111111
        k(   34) = (  -0.1666667  -0.4811252   0.2031663), wk =   0.1111111

     Dense  grid:     7547 G-vectors     FFT dimensions: (  24,  24,  36)

     Estimated max dynamical RAM per process >      23.31 MB

     Initial potential from superposition of free atoms

     starting charge      51.9339, renormalised to      52.0000
     Starting wfcs are random

     total cpu time spent up to now is        0.5 secs

     Self-consistent Calculation

     iteration #  1     ecut=    80.00 Ry     beta= 0.70
     Davidson diagonalization with overlap
     ethr =  1.00E-02,  avg # of iterations = 11.1

     total cpu time spent up to now is        5.1 secs

     total energy              =    -786.47458079 Ry
     estimated scf accuracy    <       4.78424215 Ry

     iteration #  2     ecut=    80.00 Ry     beta= 0.70
     Davidson diagonalization with overlap
     ethr =  9.20E-03,  avg # of iterations =  4.3

     total cpu time spent up to now is        6.7 secs

     total energy              =    -787.23140861 Ry
     estimated scf accuracy    <       5.38869995 Ry

     iteration #  3     ecut=    80.00 Ry     beta= 0.70
     Davidson diagonalization with overlap
     ethr =  9.20E-03,  avg # of iterations =  3.7

     total cpu time spent up to now is        8.2 secs

     total energy              =    -788.49717254 Ry
     estimated scf accuracy    <       0.05300316 Ry

     iteration #  4     ecut=    80.00 Ry     beta= 0.70
     Davidson diagonalization with overlap
     ethr =  1.02E-04,  avg # of iterations =  5.1

     total cpu time spent up to now is        9.8 secs

     total energy              =    -788.51704194 Ry
     estimated scf accuracy    <       0.01291182 Ry

     iteration #  5     ecut=    80.00 Ry     beta= 0.70
     Davidson diagonalization with overlap
     ethr =  2.48E-05,  avg # of iterations =  4.6

     total cpu time spent up to now is       11.3 secs

     total energy              =    -788.52028236 Ry
     estimated scf accuracy    <       0.00350573 Ry

     iteration #  6     ecut=    80.00 Ry     beta= 0.70
     Davidson diagonalization with overlap
     ethr =  6.74E-06,  avg # of iterations =  4.7

     total cpu time spent up to now is       12.7 secs

     total energy              =    -788.52080030 Ry
     estimated scf accuracy    <       0.00044101 Ry

     iteration #  7     ecut=    80.00 Ry     beta= 0.70
     Davidson diagonalization with overlap
     ethr =  8.48E-07,  avg # of iterations =  3.9

     total cpu time spent up to now is       14.1 secs

     total energy              =    -788.52089750 Ry
     estimated scf accuracy    <       0.00000477 Ry

     iteration #  8     ecut=    80.00 Ry     beta= 0.70
     Davidson diagonalization with overlap
     ethr =  9.18E-09,  avg # of iterations =  6.3

     total cpu time spent up to now is       16.1 secs

     total energy              =    -788.52090110 Ry
     estimated scf accuracy    <       0.00000584 Ry

     iteration #  9     ecut=    80.00 Ry     beta= 0.70
     Davidson diagonalization with overlap
     ethr =  9.18E-09,  avg # of iterations =  4.0

     total cpu time spent up to now is       17.5 secs

     total energy              =    -788.52090251 Ry
     estimated scf accuracy    <       0.00000015 Ry

     iteration # 10     ecut=    80.00 Ry     beta= 0.70
     Davidson diagonalization with overlap
     ethr =  2.79E-10,  avg # of iterations =  4.9

     total cpu time spent up to now is       19.1 secs

     total energy              =    -788.52090253 Ry
     estimated scf accuracy    <       0.00000004 Ry

     iteration # 11     ecut=    80.00 Ry     beta= 0.70
     Davidson diagonalization with overlap
     ethr =  7.74E-11,  avg # of iterations =  3.9

     total cpu time spent up to now is       20.5 secs

     End of self-consistent calculation

          k = 0.0000 0.0000 0.0000 (   965 PWs)   bands (ev):

   -81.6463 -72.6768 -41.2915 -41.2915 -35.7672 -30.5191 -30.5191 -25.0618
    24.8221  24.8221  28.3193  29.2362  29.2362  37.2506  38.0123  38.0123
    44.1893  44.1893  45.9903  57.4919  60.0261  76.7934  77.0182  77.0182
    78.9371  78.9371

          k = 0.0000 0.0000 0.1016 (   972 PWs)   bands (ev):

   -81.6461 -72.6767 -41.2916 -41.2916 -35.7668 -30.5191 -30.5191 -25.0620
    24.8208  24.8208  28.3038  29.2347  29.2347  37.2201  38.0235  38.0235
    44.1811  44.1811  46.3339  56.6652  60.6067  75.6379  77.0234  77.0234
    78.7946  78.7946

          k = 0.0000 0.0000 0.2032 (   990 PWs)   bands (ev):

   -81.6459 -72.6771 -41.2928 -41.2928 -35.7698 -30.5201 -30.5201 -25.0665
    24.8177  24.8177  28.2636  29.2332  29.2332  37.1640  38.0462  38.0462
    44.1659  44.1659  47.0981  55.3126  61.3427  73.9143  77.0390  77.0390
    78.5157  78.5157

          k = 0.0000 0.0000-0.3047 (   966 PWs)   bands (ev):

   -81.6449 -72.6761 -41.2921 -41.2921 -35.7666 -30.5192 -30.5192 -25.0628
    24.8197  24.8197  28.2535  29.2331  29.2331  37.1492  38.0627  38.0627
    44.1593  44.1593  47.5598  54.6745  61.6228  73.2439  77.0547  77.0547
    78.3817  78.3817

          k = 0.0000 0.1925 0.0000 (   961 PWs)   bands (ev):

   -81.6135 -72.6487 -41.3893 -41.2926 -35.8544 -30.5538 -30.5411 -25.0446
    24.3727  24.8387  28.5602  29.8706  29.9456  37.1561  38.0401  39.1762
    43.8580  44.6529  46.7726  57.9116  60.2150  68.7024  71.2564  76.0637
    79.3752  81.4333

          k = 0.0000 0.1925 0.1016 (   960 PWs)   bands (ev):

   -81.6133 -72.6485 -41.3891 -41.2929 -35.8544 -30.5541 -30.5405 -25.0447
    24.3714  24.8372  28.5594  29.8687  29.9295  37.1817  38.0537  39.1593
    43.8433  44.6453  47.0683  56.9306  61.0106  69.0940  71.1992  74.8538
    78.4689  80.6038

          k = 0.0000 0.1925 0.2032 (   958 PWs)   bands (ev):

   -81.6128 -72.6483 -41.3891 -41.2929 -35.8543 -30.5541 -30.5399 -25.0451
    24.3716  24.8354  28.5494  29.8666  29.9006  37.2271  38.0803  39.1313
    43.8299  44.6345  47.7413  55.4084  62.2667  69.2109  71.2184  73.4032
    77.1368  80.3499

          k = 0.0000 0.1925-0.3047 (   960 PWs)   bands (ev):

   -81.6130 -72.6487 -41.3893 -41.2928 -35.8553 -30.5536 -30.5400 -25.0464
    24.3721  24.8354  28.5407  29.8665  29.8858  37.2451  38.0950  39.1215
    43.8275  44.6313  48.1520  54.6535  63.0154  68.5234  71.3000  73.4332
    76.6384  80.2382

          k = 0.0000 0.3849 0.0000 (   958 PWs)   bands (ev):

   -81.5490 -72.5931 -41.5827 -41.2957 -36.0327 -30.6239 -30.5802 -25.0139
    23.7067  24.8751  27.6643  31.2396  33.4113  36.8259  38.1043  40.8626
    44.4786  45.7174  47.9996  56.5121  60.6918  63.6062  65.7938  71.6627
    73.9489  80.2831

          k = 0.0000 0.3849 0.1016 (   952 PWs)   bands (ev):

   -81.5489 -72.5930 -41.5826 -41.2952 -36.0326 -30.6235 -30.5797 -25.0137
    23.7047  24.8747  27.6606  31.2377  33.4433  36.7758  38.1203  40.8597
    44.5830  45.7152  48.0580  57.3461  58.4707  65.3849  65.8096  70.5358
    74.8288  79.4495

          k = 0.0000 0.3849 0.2032 (   950 PWs)   bands (ev):

   -81.5484 -72.5928 -41.5826 -41.2950 -36.0336 -30.6230 -30.5782 -25.0137
    23.7067  24.8701  27.6489  31.2368  33.4560  36.7382  38.1453  40.9082
    44.5897  45.7116  48.5942  55.8423  58.7642  65.9412  66.8404  69.4782
    74.9812  77.9552

          k = 0.0000 0.3849-0.3047 (   948 PWs)   bands (ev):

   -81.5485 -72.5929 -41.5826 -41.2948 -36.0340 -30.6225 -30.5775 -25.0137
    23.7110  24.8686  27.6415  31.2383  33.4345  36.7538  38.1566  40.9608
    44.4949  45.7099  49.2093  54.3303  59.8432  66.0645  66.8820  68.9522
    75.3244  77.2146

          k = 0.0000-0.5774 0.0000 (   924 PWs)   bands (ev):

   -81.5156 -72.5641 -41.6772 -41.2960 -36.1178 -30.6573 -30.5970 -24.9938
    23.4645  24.8975  27.1857  31.9923  35.2860  37.7431  38.1393  40.4749
    45.5794  46.3587  48.8149  53.2556  61.3837  63.4804  65.4801  67.5473
    70.2451  79.5562

          k = 0.0000-0.5774 0.1016 (   944 PWs)   bands (ev):

   -81.5163 -72.5649 -41.6779 -41.2968 -36.1219 -30.6581 -30.5970 -24.9979
    23.4643  24.8918  27.1785  31.9927  35.3354  37.6597  38.1464  40.4908
    45.4923  46.3567  49.1290  53.3922  60.0443  63.5651  65.0203  68.4624
    71.6499  78.2971

          k = 0.0000-0.5774 0.2032 (   950 PWs)   bands (ev):

   -81.5162 -72.5649 -41.6786 -41.2967 -36.1248 -30.6578 -30.5957 -24.9996
    23.4669  24.8855  27.1660  31.9940  35.4563  37.4975  38.1660  40.5288
    45.3483  46.3526  49.7743  53.8254  58.1119  63.5373  63.7471  70.8689
    74.2378  76.6320

          k = 0.0000-0.5774-0.3047 (   948 PWs)   bands (ev):

   -81.5164 -72.5651 -41.6785 -41.2964 -36.1259 -30.6571 -30.5945 -24.9996
    23.4698  24.8834  27.1604  31.9949  35.5252  37.4122  38.1781  40.5508
    45.2863  46.3508  50.0964  54.2224  57.1463  62.8841  63.8458  71.9654
    75.9758  76.1761

          k = 0.1667 0.2887 0.0000 (   963 PWs)   bands (ev):

   -81.5654 -72.6073 -41.5111 -41.3186 -35.9864 -30.6793 -30.5011 -25.0223
    23.9305  24.7781  28.3371  30.0358  32.7519  36.9547  38.0106  40.9238
    43.4754  45.7382  47.8054  58.5518  59.7167  63.5110  66.4166  74.3746
    76.2570  79.4724

          k = 0.1667 0.2887 0.1016 (   957 PWs)   bands (ev):

   -81.5649 -72.6069 -41.5109 -41.3187 -35.9857 -30.6788 -30.5004 -25.0212
    23.9319  24.7777  28.3356  30.0258  32.7539  36.9510  38.0254  40.9528
    43.4664  45.7452  48.0657  57.0310  60.9279  63.7224  66.7968  73.5158
    74.7726  79.3954

          k = 0.1667 0.2887 0.2032 (   959 PWs)   bands (ev):

   -81.5649 -72.6070 -41.5109 -41.3190 -35.9867 -30.6784 -30.4995 -25.0221
    23.9324  24.7753  28.3321  30.0043  32.7539  36.9435  38.0520  41.0005
    43.4466  45.7546  48.6812  55.3168  61.8768  64.2322  67.4916  72.1259
    73.5246  77.5232

          k = 0.1667 0.2887-0.3047 (   950 PWs)   bands (ev):

   -81.5645 -72.6067 -41.5106 -41.3191 -35.9866 -30.6780 -30.4987 -25.0215
    23.9350  24.7743  28.3307  29.9943  32.7559  36.9421  38.0666  41.0290
    43.4374  45.7597  49.0651  54.5577  62.1697  64.5679  67.6442  71.5997
    73.6031  76.1016

          k = 0.1667 0.4811 0.0000 (   942 PWs)   bands (ev):

   -81.5162 -72.5647 -41.6138 -41.3614 -36.1116 -30.8095 -30.4562 -24.9963
    23.6713  24.6813  27.7795  31.0598  35.1650  37.4373  37.9725  41.8192
    44.3420  47.1880  48.7989  54.5848  59.3824  62.1697  66.2226  69.8352
    71.9163  75.1631

          k = 0.1667 0.4811 0.1016 (   947 PWs)   bands (ev):

   -81.5163 -72.5648 -41.6141 -41.3615 -36.1135 -30.8093 -30.4554 -24.9974
    23.6709  24.6797  27.7773  31.0535  35.2349  37.3374  37.9846  41.8092
    44.4257  47.0999  48.9545  55.1232  58.4774  61.6160  66.7083  69.5162
    72.7189  74.6480

          k = 0.1667 0.4811 0.2032 (   954 PWs)   bands (ev):

   -81.5166 -72.5652 -41.6144 -41.3617 -36.1160 -30.8089 -30.4543 -24.9990
    23.6732  24.6753  27.7707  31.0425  35.3388  37.1910  38.0033  41.8509
    44.4590  46.8826  49.6767  55.4238  57.2343  61.5224  65.5512  70.4946
    72.3126  77.0239

          k = 0.1667 0.4811-0.3047 (   960 PWs)   bands (ev):

   -81.5166 -72.5652 -41.6147 -41.3621 -36.1175 -30.8090 -30.4540 -25.0002
    23.6748  24.6720  27.7668  31.0372  35.3681  37.1445  38.0104  41.9030
    44.4037  46.7825  50.3691  54.3939  57.6720  61.6306  64.8385  69.7163
    73.9010  77.5305

          k = 0.3333 0.5774 0.0000 (   936 PWs)   bands (ev):

   -81.4994 -72.5498 -41.5201 -41.5041 -36.1450 -30.9150 -30.3882 -24.9869
    23.9183  24.3380  28.1652  30.7174  35.5007  37.6590  37.8100  43.6335
    44.0273  48.9062  50.2181  50.8201  57.3542  64.3703  67.4574  69.4144
    71.2487  71.7415

          k = 0.3333 0.5774 0.1016 (   942 PWs)   bands (ev):

   -81.5002 -72.5506 -41.5202 -41.5043 -36.1473 -30.9148 -30.3875 -24.9892
    23.9204  24.3370  28.1665  30.7089  35.5388  37.5954  37.8195  43.6651
    44.0348  48.6435  50.2637  51.3044  57.6411  63.0975  65.8149  69.3505
    71.5500  73.0824

          k = 0.3333 0.5774 0.2032 (   948 PWs)   bands (ev):

   -81.5007 -72.5512 -41.5203 -41.5045 -36.1498 -30.9144 -30.3861 -24.9907
    23.9239  24.3341  28.1691  30.6917  35.6293  37.4644  37.8383  43.7269
    44.0488  48.3039  50.3615  52.1478  58.4125  61.5342  63.5479  67.0082
    75.7110  75.9321

          k = 0.3333 0.5774-0.3047 (   972 PWs)   bands (ev):

   -81.5013 -72.5518 -41.5211 -41.5050 -36.1536 -30.9154 -30.3867 -24.9949
    23.9218  24.3285  28.1698  30.6826  35.6692  37.3885  37.8444  43.7564
    44.0555  48.1644  50.4136  52.5515  59.0244  60.9376  62.3883  66.0880
    77.7481  79.6965

          k = 0.0000-0.1925 0.1016 (   960 PWs)   bands (ev):

   -81.6132 -72.6485 -41.3890 -41.2930 -35.8542 -30.5541 -30.5409 -25.0448
    24.3737  24.8362  28.5512  29.8703  29.9322  37.1724  38.0511  39.1689
    43.8575  44.6495  47.0718  56.7344  61.4073  68.3486  71.3335  75.6205
    78.9075  80.4329

          k = 0.0000-0.1925 0.2032 (   958 PWs)   bands (ev):

   -81.6129 -72.6483 -41.3889 -41.2931 -35.8541 -30.5540 -30.5402 -25.0451
    24.3739  24.8342  28.5416  29.8684  29.9039  37.2178  38.0780  39.1407
    43.8404  44.6388  47.7589  55.2727  62.7039  68.1243  71.3577  74.3667
    77.3943  80.3375

          k = 0.0000-0.3849 0.1016 (   952 PWs)   bands (ev):

   -81.5489 -72.5930 -41.5826 -41.2956 -36.0326 -30.6235 -30.5798 -25.0137
    23.7105  24.8739  27.6565  31.2413  33.3909  36.8389  38.1148  40.9175
    44.3852  45.7162  48.4585  55.2909  61.5260  64.0876  65.9046  69.9037
    75.5994  79.0603

          k = 0.0000-0.3849 0.2032 (   950 PWs)   bands (ev):

   -81.5485 -72.5928 -41.5827 -41.2953 -36.0332 -30.6230 -30.5784 -25.0135
    23.7127  24.8693  27.6447  31.2407  33.4032  36.8025  38.1397  40.9625
    44.3919  45.7124  49.1292  54.2226  60.7969  66.0430  66.3028  68.2657
    76.7262  77.6445

          k =-0.1667-0.4811 0.1016 (   947 PWs)   bands (ev):

   -81.5164 -72.5648 -41.6141 -41.3614 -36.1130 -30.8093 -30.4557 -24.9973
    23.6728  24.6788  27.7758  31.0544  35.1913  37.3922  37.9812  41.8726
    44.2906  47.0111  49.3976  54.1727  59.3206  61.7268  67.0580  68.5699
    72.4118  75.1849

          k =-0.1667-0.4811 0.2032 (   954 PWs)   bands (ev):

   -81.5166 -72.5652 -41.6144 -41.3618 -36.1158 -30.8089 -30.4544 -24.9990
    23.6753  24.6746  27.7693  31.0431  35.2898  37.2510  38.0006  41.9129
    44.3198  46.8369  50.2335  53.8994  58.5648  61.5538  65.5690  69.8216
    72.2316  77.4232

     highest occupied level (ev):    81.4333

!    total energy              =    -788.52090254 Ry
     estimated scf accuracy    <          1.4E-10 Ry

     The total energy is the sum of the following terms:
     one-electron contribution =    -289.39388728 Ry
     hartree contribution      =     244.74129895 Ry
     xc contribution           =     -95.87774745 Ry
     ewald contribution        =    -647.99056676 Ry

     convergence has been achieved in  11 iterations

     Writing all to output data dir ./SCRATCH/zns_w.save/

     init_run     :      0.45s CPU      0.50s WALL (       1 calls)
     electrons    :     19.59s CPU     20.00s WALL (       1 calls)

     Called by init_run:
     wfcinit      :      0.42s CPU      0.44s WALL (       1 calls)
     potinit      :      0.02s CPU      0.02s WALL (       1 calls)
     hinit0       :      0.02s CPU      0.04s WALL (       1 calls)

     Called by electrons:
     c_bands      :     18.19s CPU     18.56s WALL (      11 calls)
     sum_band     :      1.33s CPU      1.36s WALL (      11 calls)
     v_of_rho     :      0.08s CPU      0.07s WALL (      12 calls)
     mix_rho      :      0.00s CPU      0.01s WALL (      11 calls)

     Called by c_bands:
     init_us_2    :      0.09s CPU      0.18s WALL (     782 calls)
     init_us_2:cp :      0.09s CPU      0.18s WALL (     782 calls)
     cegterg      :     17.80s CPU     18.07s WALL (     374 calls)

     Called by *egterg:
     cdiaghg      :      1.47s CPU      1.43s WALL (    2290 calls)
     h_psi        :     11.53s CPU     11.68s WALL (    2324 calls)
     g_psi        :      0.05s CPU      0.06s WALL (    1916 calls)

     Called by h_psi:
     h_psi:calbec :      1.91s CPU      1.72s WALL (    2324 calls)
     vloc_psi     :      8.27s CPU      8.61s WALL (    2324 calls)
     add_vuspsi   :      1.28s CPU      1.26s WALL (    2324 calls)

     General routines
     calbec       :      1.91s CPU      1.71s WALL (    2324 calls)
     fft          :      0.03s CPU      0.02s WALL (     119 calls)
     ffts         :      0.00s CPU      0.00s WALL (      11 calls)
     fftw         :      8.31s CPU      8.63s WALL (   75786 calls)


     PWSCF        :     20.08s CPU     20.56s WALL


   This run was terminated on:  10:35: 8  15Jun2024            

=------------------------------------------------------------------------------=
   JOB DONE.
=------------------------------------------------------------------------------=
