
     Program PWSCF v.7.2 starts on 25May2024 at 12:15:32 

     This program is part of the open-source Quantum ESPRESSO suite
     for quantum simulation of materials; please cite
         "P. Giannozzi et al., J. Phys.:Condens. Matter 21 395502 (2009);
         "P. Giannozzi et al., J. Phys.:Condens. Matter 29 465901 (2017);
         "P. Giannozzi et al., J. Chem. Phys. 152 154105 (2020);
          URL http://www.quantum-espresso.org", 
     in publications or presentations arising from this work. More details at
     http://www.quantum-espresso.org/quote

     Serial version
     8196 MiB available memory on the printing compute node when the environment starts

     Waiting for input...
     Reading input from standard input

     Current dimensions of program PWSCF are:
     Max number of different atomic species (ntypx) = 10
     Max number of k-points (npk) =  40000
     Max angular momentum in pseudopotentials (lmaxx) =  4


     G-vector sticks info
     --------------------
     sticks:   dense  smooth     PW     G-vecs:    dense   smooth      PW
     Sum        1891    1891    547                54193    54193    8363

     Using Slab Decomposition



     bravais-lattice index     =            2
     lattice parameter (alat)  =      10.6829  a.u.
     unit-cell volume          =     304.7951 (a.u.)^3
     number of atoms/cell      =            2
     number of atomic types    =            2
     number of electrons       =         8.00
     number of Kohn-Sham states=            4
     kinetic-energy cutoff     =     120.0000  Ry
     charge density cutoff     =     480.0000  Ry
     scf convergence threshold =      1.0E-08
     mixing beta               =       0.7000
     number of iterations used =            8  plain     mixing
     Exchange-correlation= SLA  PZ   NOGX NOGC
                           (   1   1   0   0   0   0   0)

     celldm(1)=  10.682904  celldm(2)=   0.000000  celldm(3)=   0.000000
     celldm(4)=   0.000000  celldm(5)=   0.000000  celldm(6)=   0.000000

     crystal axes: (cart. coord. in units of alat)
               a(1) = (  -0.500000   0.000000   0.500000 )  
               a(2) = (   0.000000   0.500000   0.500000 )  
               a(3) = (  -0.500000   0.500000   0.000000 )  

     reciprocal axes: (cart. coord. in units 2 pi/alat)
               b(1) = ( -1.000000 -1.000000  1.000000 )  
               b(2) = (  1.000000  1.000000  1.000000 )  
               b(3) = ( -1.000000  1.000000 -1.000000 )  


     PseudoPot. # 1 for Ga read from file:
     /home/paolo/project_labqsm/pseudopotentials/Ga.pz-bhs.UPF
     MD5 check sum: 09b06f4702dea281feaf053846378b49
     Pseudo is Norm-conserving, Zval =  3.0
     Generated by new atomic code, or converted to UPF format
     Using radial grid of  523 points,  2 beta functions with: 
                l(1) =   0
                l(2) =   1

     PseudoPot. # 2 for As read from file:
     /home/paolo/project_labqsm/pseudopotentials/As.pz-bhs.UPF
     MD5 check sum: d67708448008dff3ec15a9356ed645c7
     Pseudo is Norm-conserving, Zval =  5.0
     Generated by new atomic code, or converted to UPF format
     Using radial grid of  525 points,  2 beta functions with: 
                l(1) =   0
                l(2) =   1

     atomic species   valence    mass     pseudopotential
        Ga             3.00    69.72300     Ga( 1.00)
        As             5.00    74.92200     As( 1.00)

     24 Sym. Ops. (no inversion) found



   Cartesian axes

     site n.     atom                  positions (alat units)
         1           Ga  tau(   1) = (   0.0000000   0.0000000   0.0000000  )
         2           As  tau(   2) = (   0.2500000   0.2500000   0.2500000  )

     number of k points=    29
                       cart. coord. in units 2pi/alat
        k(    1) = (   0.0000000   0.0000000   0.0000000), wk =   0.0039062
        k(    2) = (  -0.1250000   0.1250000  -0.1250000), wk =   0.0312500
        k(    3) = (  -0.2500000   0.2500000  -0.2500000), wk =   0.0312500
        k(    4) = (  -0.3750000   0.3750000  -0.3750000), wk =   0.0312500
        k(    5) = (   0.5000000  -0.5000000   0.5000000), wk =   0.0156250
        k(    6) = (   0.0000000   0.2500000   0.0000000), wk =   0.0234375
        k(    7) = (  -0.1250000   0.3750000  -0.1250000), wk =   0.0937500
        k(    8) = (  -0.2500000   0.5000000  -0.2500000), wk =   0.0937500
        k(    9) = (   0.6250000  -0.3750000   0.6250000), wk =   0.0937500
        k(   10) = (   0.5000000  -0.2500000   0.5000000), wk =   0.0937500
        k(   11) = (   0.3750000  -0.1250000   0.3750000), wk =   0.0937500
        k(   12) = (   0.2500000   0.0000000   0.2500000), wk =   0.0468750
        k(   13) = (   0.0000000   0.5000000   0.0000000), wk =   0.0234375
        k(   14) = (  -0.1250000   0.6250000  -0.1250000), wk =   0.0937500
        k(   15) = (   0.7500000  -0.2500000   0.7500000), wk =   0.0937500
        k(   16) = (   0.6250000  -0.1250000   0.6250000), wk =   0.0937500
        k(   17) = (   0.5000000   0.0000000   0.5000000), wk =   0.0468750
        k(   18) = (   0.0000000   0.7500000   0.0000000), wk =   0.0234375
        k(   19) = (   0.8750000  -0.1250000   0.8750000), wk =   0.0937500
        k(   20) = (   0.7500000   0.0000000   0.7500000), wk =   0.0468750
        k(   21) = (   0.0000000  -1.0000000   0.0000000), wk =   0.0117188
        k(   22) = (  -0.2500000   0.5000000   0.0000000), wk =   0.0937500
        k(   23) = (   0.6250000  -0.3750000   0.8750000), wk =   0.1875000
        k(   24) = (   0.5000000  -0.2500000   0.7500000), wk =   0.0937500
        k(   25) = (   0.7500000  -0.2500000   1.0000000), wk =   0.0937500
        k(   26) = (   0.6250000  -0.1250000   0.8750000), wk =   0.1875000
        k(   27) = (   0.5000000   0.0000000   0.7500000), wk =   0.0937500
        k(   28) = (  -0.2500000  -1.0000000   0.0000000), wk =   0.0468750
        k(   29) = (  -0.5000000  -1.0000000   0.0000000), wk =   0.0234375

     Dense  grid:    54193 G-vectors     FFT dimensions: (  54,  54,  54)

     Estimated max dynamical RAM per process >      50.17 MB

     Initial potential from superposition of free atoms

     starting charge       7.9979, renormalised to       8.0000
     Starting wfcs are    8 randomized atomic wfcs

     total cpu time spent up to now is        1.0 secs

     Self-consistent Calculation

     iteration #  1     ecut=   120.00 Ry     beta= 0.70
     Davidson diagonalization with overlap
     ethr =  1.00E-02,  avg # of iterations =  1.5

     Threshold (ethr) on eigenvalues was too large:
     Diagonalizing with lowered threshold

     Davidson diagonalization with overlap
     ethr =  4.71E-04,  avg # of iterations =  3.0

     total cpu time spent up to now is        3.6 secs

     total energy              =     -17.31663860 Ry
     estimated scf accuracy    <       0.04153493 Ry

     iteration #  2     ecut=   120.00 Ry     beta= 0.70
     Davidson diagonalization with overlap
     ethr =  5.19E-04,  avg # of iterations =  2.0

     total cpu time spent up to now is        4.9 secs

     total energy              =     -17.32344807 Ry
     estimated scf accuracy    <       0.00280770 Ry

     iteration #  3     ecut=   120.00 Ry     beta= 0.70
     Davidson diagonalization with overlap
     ethr =  3.51E-05,  avg # of iterations =  3.5

     total cpu time spent up to now is        6.4 secs

     total energy              =     -17.32422096 Ry
     estimated scf accuracy    <       0.00055447 Ry

     iteration #  4     ecut=   120.00 Ry     beta= 0.70
     Davidson diagonalization with overlap
     ethr =  6.93E-06,  avg # of iterations =  3.6

     total cpu time spent up to now is        8.0 secs

     total energy              =     -17.32453206 Ry
     estimated scf accuracy    <       0.00030794 Ry

     iteration #  5     ecut=   120.00 Ry     beta= 0.70
     Davidson diagonalization with overlap
     ethr =  3.85E-06,  avg # of iterations =  1.3

     total cpu time spent up to now is        9.0 secs

     total energy              =     -17.32447736 Ry
     estimated scf accuracy    <       0.00022258 Ry

     iteration #  6     ecut=   120.00 Ry     beta= 0.70
     Davidson diagonalization with overlap
     ethr =  2.78E-06,  avg # of iterations =  1.3

     total cpu time spent up to now is       10.1 secs

     total energy              =     -17.32442393 Ry
     estimated scf accuracy    <       0.00008803 Ry

     iteration #  7     ecut=   120.00 Ry     beta= 0.70
     Davidson diagonalization with overlap
     ethr =  1.10E-06,  avg # of iterations =  3.8

     total cpu time spent up to now is       11.8 secs

     total energy              =     -17.32447335 Ry
     estimated scf accuracy    <       0.00004167 Ry

     iteration #  8     ecut=   120.00 Ry     beta= 0.70
     Davidson diagonalization with overlap
     ethr =  5.21E-07,  avg # of iterations =  1.2

     total cpu time spent up to now is       12.8 secs

     total energy              =     -17.32447398 Ry
     estimated scf accuracy    <       0.00002549 Ry

     iteration #  9     ecut=   120.00 Ry     beta= 0.70
     Davidson diagonalization with overlap
     ethr =  3.19E-07,  avg # of iterations =  1.0

     total cpu time spent up to now is       13.8 secs

     total energy              =     -17.32447500 Ry
     estimated scf accuracy    <       0.00002304 Ry

     iteration # 10     ecut=   120.00 Ry     beta= 0.70
     Davidson diagonalization with overlap
     ethr =  2.88E-07,  avg # of iterations =  1.0

     total cpu time spent up to now is       14.8 secs

     total energy              =     -17.32445958 Ry
     estimated scf accuracy    <       0.00002407 Ry

     iteration # 11     ecut=   120.00 Ry     beta= 0.70
     Davidson diagonalization with overlap
     ethr =  2.88E-07,  avg # of iterations =  2.1

     total cpu time spent up to now is       16.2 secs

     total energy              =     -17.32446616 Ry
     estimated scf accuracy    <       0.00000091 Ry

     iteration # 12     ecut=   120.00 Ry     beta= 0.70
     Davidson diagonalization with overlap
     ethr =  1.13E-08,  avg # of iterations =  3.9

     total cpu time spent up to now is       17.9 secs

     total energy              =     -17.32449198 Ry
     estimated scf accuracy    <       0.00000018 Ry

     iteration # 13     ecut=   120.00 Ry     beta= 0.70
     Davidson diagonalization with overlap
     ethr =  2.30E-09,  avg # of iterations = 12.4

     total cpu time spent up to now is       22.6 secs

     total energy              =     -17.32443393 Ry
     estimated scf accuracy    <       0.00015105 Ry

     iteration # 14     ecut=   120.00 Ry     beta= 0.70
     Davidson diagonalization with overlap
     ethr =  2.30E-09,  avg # of iterations = 12.0

     total cpu time spent up to now is       27.2 secs

     total energy              =     -17.32446588 Ry
     estimated scf accuracy    <       0.00000217 Ry

     iteration # 15     ecut=   120.00 Ry     beta= 0.70
     Davidson diagonalization with overlap
     ethr =  2.30E-09,  avg # of iterations =  7.0

     total cpu time spent up to now is       30.0 secs

     total energy              =     -17.32446691 Ry
     estimated scf accuracy    <       0.00000093 Ry

     iteration # 16     ecut=   120.00 Ry     beta= 0.70
     Davidson diagonalization with overlap
     ethr =  2.30E-09,  avg # of iterations =  1.0

     total cpu time spent up to now is       31.0 secs

     total energy              =     -17.32446638 Ry
     estimated scf accuracy    <       0.00000087 Ry

     iteration # 17     ecut=   120.00 Ry     beta= 0.70
     Davidson diagonalization with overlap
     ethr =  2.30E-09,  avg # of iterations =  4.7

     total cpu time spent up to now is       33.0 secs

     total energy              =     -17.32446660 Ry
     estimated scf accuracy    <       0.00000003 Ry

     iteration # 18     ecut=   120.00 Ry     beta= 0.70
     Davidson diagonalization with overlap
     ethr =  4.04E-10,  avg # of iterations =  1.8

     total cpu time spent up to now is       34.1 secs

     End of self-consistent calculation

          k = 0.0000 0.0000 0.0000 (  6735 PWs)   bands (ev):

    -7.8531   4.5861   4.5861   4.5861

          k =-0.1250 0.1250-0.1250 (  6753 PWs)   bands (ev):

    -7.7009   2.6754   4.3676   4.3676

          k =-0.2500 0.2500-0.2500 (  6748 PWs)   bands (ev):

    -7.2704   0.4841   3.9559   3.9559

          k =-0.3750 0.3750-0.3750 (  6772 PWs)   bands (ev):

    -6.6898  -1.2318   3.6382   3.6382

          k = 0.5000-0.5000 0.5000 (  6778 PWs)   bands (ev):

    -6.3624  -1.9485   3.5242   3.5242

          k = 0.0000 0.2500 0.0000 (  6747 PWs)   bands (ev):

    -7.6495   2.6458   3.9631   3.9631

          k =-0.1250 0.3750-0.1250 (  6758 PWs)   bands (ev):

    -7.3087   0.9865   3.4752   3.4984

          k =-0.2500 0.5000-0.2500 (  6761 PWs)   bands (ev):

    -6.7608  -0.7470   2.8868   3.2254

          k = 0.6250-0.3750 0.6250 (  6763 PWs)   bands (ev):

    -6.2956  -1.7970   2.4608   3.2231

          k = 0.5000-0.2500 0.5000 (  6753 PWs)   bands (ev):

    -6.4119  -1.5565   2.3241   3.4822

          k = 0.3750-0.1250 0.3750 (  6759 PWs)   bands (ev):

    -6.9594  -0.2106   2.5499   3.9216

          k = 0.2500 0.0000 0.2500 (  6739 PWs)   bands (ev):

    -7.4542   1.4841   3.2774   4.3353

          k = 0.0000 0.5000 0.0000 (  6811 PWs)   bands (ev):

    -7.0651   0.5181   2.9740   2.9740

          k =-0.1250 0.6250-0.1250 (  6769 PWs)   bands (ev):

    -6.5954  -0.6384   2.2521   2.6593

          k = 0.7500-0.2500 0.7500 (  6768 PWs)   bands (ev):

    -6.1039  -1.5923   1.4232   2.6468

          k = 0.6250-0.1250 0.6250 (  6762 PWs)   bands (ev):

    -6.0288  -1.7047   1.0051   2.9362

          k = 0.5000 0.0000 0.5000 (  6773 PWs)   bands (ev):

    -6.4586  -0.9925   1.2928   3.4419

          k = 0.0000 0.7500 0.0000 (  6766 PWs)   bands (ev):

    -6.2354  -1.2669   2.2744   2.2744

          k = 0.8750-0.1250 0.8750 (  6779 PWs)   bands (ev):

    -5.8503  -1.8571   1.5686   2.1939

          k = 0.7500 0.0000 0.7500 (  6765 PWs)   bands (ev):

    -5.7544  -1.9162   0.8033   2.4360

          k = 0.0000-1.0000 0.0000 (  6782 PWs)   bands (ev):

    -5.7167  -2.1115   2.0295   2.0295

          k =-0.2500 0.5000 0.0000 (  6778 PWs)   bands (ev):

    -6.9005  -0.0609   2.2630   3.3555

          k = 0.6250-0.3750 0.8750 (  6764 PWs)   bands (ev):

    -6.3605  -1.2313   1.6065   2.9315

          k = 0.5000-0.2500 0.7500 (  6800 PWs)   bands (ev):

    -6.0640  -1.7898   1.4288   2.7354

          k = 0.7500-0.2500 1.0000 (  6780 PWs)   bands (ev):

    -6.1420  -1.3852   1.6305   2.2024

          k = 0.6250-0.1250 0.8750 (  6762 PWs)   bands (ev):

    -5.8112  -1.8240   0.9969   2.0253

          k = 0.5000 0.0000 0.7500 (  6776 PWs)   bands (ev):

    -5.9307  -1.6658   0.8511   2.3613

          k =-0.2500-1.0000 0.0000 (  6768 PWs)   bands (ev):

    -5.6966  -2.0157   1.5245   1.6507

          k =-0.5000-1.0000 0.0000 (  6740 PWs)   bands (ev):

    -5.6761  -1.9057   1.1014   1.3510

     highest occupied level (ev):     4.5861

!    total energy              =     -17.32446659 Ry
     estimated scf accuracy    <          7.2E-09 Ry

     The total energy is the sum of the following terms:
     one-electron contribution =       2.72662584 Ry
     hartree contribution      =       1.55989049 Ry
     xc contribution           =      -4.76693175 Ry
     ewald contribution        =     -16.84405117 Ry

     convergence has been achieved in  18 iterations

     Writing all to output data dir ./SCRATCH/gallium_arsenide.save/

     init_run     :      0.97s CPU      1.01s WALL (       1 calls)
     electrons    :     32.84s CPU     33.12s WALL (       1 calls)

     Called by init_run:
     wfcinit      :      0.88s CPU      0.89s WALL (       1 calls)
     potinit      :      0.00s CPU      0.03s WALL (       1 calls)
     hinit0       :      0.06s CPU      0.05s WALL (       1 calls)

     Called by electrons:
     c_bands      :     28.83s CPU     29.03s WALL (      19 calls)
     sum_band     :      3.75s CPU      3.78s WALL (      19 calls)
     v_of_rho     :      0.09s CPU      0.15s WALL (      19 calls)
     mix_rho      :      0.14s CPU      0.16s WALL (      19 calls)

     Called by c_bands:
     init_us_2    :      0.72s CPU      0.73s WALL (    1131 calls)
     init_us_2:cp :      0.72s CPU      0.72s WALL (    1131 calls)
     cegterg      :     28.30s CPU     28.40s WALL (     551 calls)

     Called by *egterg:
     cdiaghg      :      0.06s CPU      0.05s WALL (    2495 calls)
     h_psi        :     26.92s CPU     27.12s WALL (    2553 calls)
     g_psi        :      0.11s CPU      0.12s WALL (    1973 calls)

     Called by h_psi:
     h_psi:calbec :      0.48s CPU      0.52s WALL (    2553 calls)
     vloc_psi     :     25.98s CPU     26.13s WALL (    2553 calls)
     add_vuspsi   :      0.38s CPU      0.38s WALL (    2553 calls)

     General routines
     calbec       :      0.45s CPU      0.51s WALL (    2553 calls)
     fft          :      0.09s CPU      0.11s WALL (      57 calls)
     ffts         :      0.02s CPU      0.04s WALL (      19 calls)
     fftw         :     27.22s CPU     27.21s WALL (   19614 calls)


     PWSCF        :     33.86s CPU     34.18s WALL


   This run was terminated on:  12:16: 6  25May2024            

=------------------------------------------------------------------------------=
   JOB DONE.
=------------------------------------------------------------------------------=
