
     Program PWSCF v.7.2 starts on 25May2024 at 12:14:55 

     This program is part of the open-source Quantum ESPRESSO suite
     for quantum simulation of materials; please cite
         "P. Giannozzi et al., J. Phys.:Condens. Matter 21 395502 (2009);
         "P. Giannozzi et al., J. Phys.:Condens. Matter 29 465901 (2017);
         "P. Giannozzi et al., J. Chem. Phys. 152 154105 (2020);
          URL http://www.quantum-espresso.org", 
     in publications or presentations arising from this work. More details at
     http://www.quantum-espresso.org/quote

     Serial version
     8218 MiB available memory on the printing compute node when the environment starts

     Waiting for input...
     Reading input from standard input

     Current dimensions of program PWSCF are:
     Max number of different atomic species (ntypx) = 10
     Max number of k-points (npk) =  40000
     Max angular momentum in pseudopotentials (lmaxx) =  4


     G-vector sticks info
     --------------------
     sticks:   dense  smooth     PW     G-vecs:    dense   smooth      PW
     Sum        1261    1261    367                29603    29603    4645

     Using Slab Decomposition



     bravais-lattice index     =            2
     lattice parameter (alat)  =      10.6829  a.u.
     unit-cell volume          =     304.7951 (a.u.)^3
     number of atoms/cell      =            2
     number of atomic types    =            2
     number of electrons       =         8.00
     number of Kohn-Sham states=            4
     kinetic-energy cutoff     =      80.0000  Ry
     charge density cutoff     =     320.0000  Ry
     scf convergence threshold =      1.0E-08
     mixing beta               =       0.7000
     number of iterations used =            8  plain     mixing
     Exchange-correlation= SLA  PZ   NOGX NOGC
                           (   1   1   0   0   0   0   0)

     celldm(1)=  10.682904  celldm(2)=   0.000000  celldm(3)=   0.000000
     celldm(4)=   0.000000  celldm(5)=   0.000000  celldm(6)=   0.000000

     crystal axes: (cart. coord. in units of alat)
               a(1) = (  -0.500000   0.000000   0.500000 )  
               a(2) = (   0.000000   0.500000   0.500000 )  
               a(3) = (  -0.500000   0.500000   0.000000 )  

     reciprocal axes: (cart. coord. in units 2 pi/alat)
               b(1) = ( -1.000000 -1.000000  1.000000 )  
               b(2) = (  1.000000  1.000000  1.000000 )  
               b(3) = ( -1.000000  1.000000 -1.000000 )  


     PseudoPot. # 1 for Ga read from file:
     /home/paolo/project_labqsm/pseudopotentials/Ga.pz-bhs.UPF
     MD5 check sum: 09b06f4702dea281feaf053846378b49
     Pseudo is Norm-conserving, Zval =  3.0
     Generated by new atomic code, or converted to UPF format
     Using radial grid of  523 points,  2 beta functions with: 
                l(1) =   0
                l(2) =   1

     PseudoPot. # 2 for As read from file:
     /home/paolo/project_labqsm/pseudopotentials/As.pz-bhs.UPF
     MD5 check sum: d67708448008dff3ec15a9356ed645c7
     Pseudo is Norm-conserving, Zval =  5.0
     Generated by new atomic code, or converted to UPF format
     Using radial grid of  525 points,  2 beta functions with: 
                l(1) =   0
                l(2) =   1

     atomic species   valence    mass     pseudopotential
        Ga             3.00    69.72300     Ga( 1.00)
        As             5.00    74.92200     As( 1.00)

     24 Sym. Ops. (no inversion) found



   Cartesian axes

     site n.     atom                  positions (alat units)
         1           Ga  tau(   1) = (   0.0000000   0.0000000   0.0000000  )
         2           As  tau(   2) = (   0.2500000   0.2500000   0.2500000  )

     number of k points=    29
                       cart. coord. in units 2pi/alat
        k(    1) = (   0.0000000   0.0000000   0.0000000), wk =   0.0039062
        k(    2) = (  -0.1250000   0.1250000  -0.1250000), wk =   0.0312500
        k(    3) = (  -0.2500000   0.2500000  -0.2500000), wk =   0.0312500
        k(    4) = (  -0.3750000   0.3750000  -0.3750000), wk =   0.0312500
        k(    5) = (   0.5000000  -0.5000000   0.5000000), wk =   0.0156250
        k(    6) = (   0.0000000   0.2500000   0.0000000), wk =   0.0234375
        k(    7) = (  -0.1250000   0.3750000  -0.1250000), wk =   0.0937500
        k(    8) = (  -0.2500000   0.5000000  -0.2500000), wk =   0.0937500
        k(    9) = (   0.6250000  -0.3750000   0.6250000), wk =   0.0937500
        k(   10) = (   0.5000000  -0.2500000   0.5000000), wk =   0.0937500
        k(   11) = (   0.3750000  -0.1250000   0.3750000), wk =   0.0937500
        k(   12) = (   0.2500000   0.0000000   0.2500000), wk =   0.0468750
        k(   13) = (   0.0000000   0.5000000   0.0000000), wk =   0.0234375
        k(   14) = (  -0.1250000   0.6250000  -0.1250000), wk =   0.0937500
        k(   15) = (   0.7500000  -0.2500000   0.7500000), wk =   0.0937500
        k(   16) = (   0.6250000  -0.1250000   0.6250000), wk =   0.0937500
        k(   17) = (   0.5000000   0.0000000   0.5000000), wk =   0.0468750
        k(   18) = (   0.0000000   0.7500000   0.0000000), wk =   0.0234375
        k(   19) = (   0.8750000  -0.1250000   0.8750000), wk =   0.0937500
        k(   20) = (   0.7500000   0.0000000   0.7500000), wk =   0.0468750
        k(   21) = (   0.0000000  -1.0000000   0.0000000), wk =   0.0117188
        k(   22) = (  -0.2500000   0.5000000   0.0000000), wk =   0.0937500
        k(   23) = (   0.6250000  -0.3750000   0.8750000), wk =   0.1875000
        k(   24) = (   0.5000000  -0.2500000   0.7500000), wk =   0.0937500
        k(   25) = (   0.7500000  -0.2500000   1.0000000), wk =   0.0937500
        k(   26) = (   0.6250000  -0.1250000   0.8750000), wk =   0.1875000
        k(   27) = (   0.5000000   0.0000000   0.7500000), wk =   0.0937500
        k(   28) = (  -0.2500000  -1.0000000   0.0000000), wk =   0.0468750
        k(   29) = (  -0.5000000  -1.0000000   0.0000000), wk =   0.0234375

     Dense  grid:    29603 G-vectors     FFT dimensions: (  45,  45,  45)

     Estimated max dynamical RAM per process >      27.81 MB

     Initial potential from superposition of free atoms

     starting charge       7.9979, renormalised to       8.0000
     Starting wfcs are    8 randomized atomic wfcs

     total cpu time spent up to now is        0.5 secs

     Self-consistent Calculation

     iteration #  1     ecut=    80.00 Ry     beta= 0.70
     Davidson diagonalization with overlap
     ethr =  1.00E-02,  avg # of iterations =  1.4

     Threshold (ethr) on eigenvalues was too large:
     Diagonalizing with lowered threshold

     Davidson diagonalization with overlap
     ethr =  4.66E-04,  avg # of iterations =  3.1

     total cpu time spent up to now is        1.9 secs

     total energy              =     -17.31689312 Ry
     estimated scf accuracy    <       0.04134525 Ry

     iteration #  2     ecut=    80.00 Ry     beta= 0.70
     Davidson diagonalization with overlap
     ethr =  5.17E-04,  avg # of iterations =  2.0

     total cpu time spent up to now is        2.6 secs

     total energy              =     -17.32358566 Ry
     estimated scf accuracy    <       0.00278904 Ry

     iteration #  3     ecut=    80.00 Ry     beta= 0.70
     Davidson diagonalization with overlap
     ethr =  3.49E-05,  avg # of iterations =  3.1

     total cpu time spent up to now is        3.3 secs

     total energy              =     -17.32423723 Ry
     estimated scf accuracy    <       0.00047569 Ry

     iteration #  4     ecut=    80.00 Ry     beta= 0.70
     Davidson diagonalization with overlap
     ethr =  5.95E-06,  avg # of iterations =  3.8

     total cpu time spent up to now is        4.2 secs

     total energy              =     -17.32449919 Ry
     estimated scf accuracy    <       0.00022431 Ry

     iteration #  5     ecut=    80.00 Ry     beta= 0.70
     Davidson diagonalization with overlap
     ethr =  2.80E-06,  avg # of iterations =  1.3

     total cpu time spent up to now is        4.7 secs

     total energy              =     -17.32442911 Ry
     estimated scf accuracy    <       0.00015213 Ry

     iteration #  6     ecut=    80.00 Ry     beta= 0.70
     Davidson diagonalization with overlap
     ethr =  1.90E-06,  avg # of iterations =  4.9

     total cpu time spent up to now is        5.8 secs

     total energy              =     -17.32441058 Ry
     estimated scf accuracy    <       0.00051506 Ry

     iteration #  7     ecut=    80.00 Ry     beta= 0.70
     Davidson diagonalization with overlap
     ethr =  1.90E-06,  avg # of iterations =  2.4

     total cpu time spent up to now is        6.5 secs

     total energy              =     -17.32445344 Ry
     estimated scf accuracy    <       0.00003889 Ry

     iteration #  8     ecut=    80.00 Ry     beta= 0.70
     Davidson diagonalization with overlap
     ethr =  4.86E-07,  avg # of iterations =  2.8

     total cpu time spent up to now is        7.2 secs

     total energy              =     -17.32445614 Ry
     estimated scf accuracy    <       0.00001459 Ry

     iteration #  9     ecut=    80.00 Ry     beta= 0.70
     Davidson diagonalization with overlap
     ethr =  1.82E-07,  avg # of iterations =  2.9

     total cpu time spent up to now is        7.9 secs

     total energy              =     -17.32445720 Ry
     estimated scf accuracy    <       0.00000295 Ry

     iteration # 10     ecut=    80.00 Ry     beta= 0.70
     Davidson diagonalization with overlap
     ethr =  3.69E-08,  avg # of iterations =  4.7

     total cpu time spent up to now is        8.9 secs

     total energy              =     -17.32445953 Ry
     estimated scf accuracy    <       0.00000098 Ry

     iteration # 11     ecut=    80.00 Ry     beta= 0.70
     Davidson diagonalization with overlap
     ethr =  1.23E-08,  avg # of iterations =  1.6

     total cpu time spent up to now is        9.5 secs

     total energy              =     -17.32446042 Ry
     estimated scf accuracy    <       0.00000037 Ry

     iteration # 12     ecut=    80.00 Ry     beta= 0.70
     Davidson diagonalization with overlap
     ethr =  4.65E-09,  avg # of iterations =  4.0

     total cpu time spent up to now is       10.4 secs

     total energy              =     -17.32445872 Ry
     estimated scf accuracy    <       0.00000306 Ry

     iteration # 13     ecut=    80.00 Ry     beta= 0.70
     Davidson diagonalization with overlap
     ethr =  4.65E-09,  avg # of iterations =  5.6

     total cpu time spent up to now is       11.6 secs

     total energy              =     -17.32445951 Ry
     estimated scf accuracy    <       0.00000027 Ry

     iteration # 14     ecut=    80.00 Ry     beta= 0.70
     Davidson diagonalization with overlap
     ethr =  3.37E-09,  avg # of iterations =  1.1

     total cpu time spent up to now is       12.1 secs

     total energy              =     -17.32445948 Ry
     estimated scf accuracy    <       0.00000007 Ry

     iteration # 15     ecut=    80.00 Ry     beta= 0.70
     Davidson diagonalization with overlap
     ethr =  9.30E-10,  avg # of iterations =  2.8

     total cpu time spent up to now is       12.9 secs

     End of self-consistent calculation

          k = 0.0000 0.0000 0.0000 (  3695 PWs)   bands (ev):

    -7.8530   4.5861   4.5861   4.5861

          k =-0.1250 0.1250-0.1250 (  3695 PWs)   bands (ev):

    -7.7008   2.6754   4.3677   4.3677

          k =-0.2500 0.2500-0.2500 (  3693 PWs)   bands (ev):

    -7.2703   0.4842   3.9560   3.9560

          k =-0.3750 0.3750-0.3750 (  3687 PWs)   bands (ev):

    -6.6897  -1.2318   3.6383   3.6383

          k = 0.5000-0.5000 0.5000 (  3708 PWs)   bands (ev):

    -6.3623  -1.9485   3.5243   3.5243

          k = 0.0000 0.2500 0.0000 (  3683 PWs)   bands (ev):

    -7.6494   2.6459   3.9632   3.9632

          k =-0.1250 0.3750-0.1250 (  3674 PWs)   bands (ev):

    -7.3086   0.9866   3.4753   3.4984

          k =-0.2500 0.5000-0.2500 (  3676 PWs)   bands (ev):

    -6.7607  -0.7469   2.8869   3.2255

          k = 0.6250-0.3750 0.6250 (  3690 PWs)   bands (ev):

    -6.2954  -1.7970   2.4608   3.2231

          k = 0.5000-0.2500 0.5000 (  3693 PWs)   bands (ev):

    -6.4118  -1.5564   2.3242   3.4823

          k = 0.3750-0.1250 0.3750 (  3686 PWs)   bands (ev):

    -6.9593  -0.2106   2.5500   3.9217

          k = 0.2500 0.0000 0.2500 (  3681 PWs)   bands (ev):

    -7.4541   1.4841   3.2774   4.3354

          k = 0.0000 0.5000 0.0000 (  3655 PWs)   bands (ev):

    -7.0650   0.5182   2.9740   2.9740

          k =-0.1250 0.6250-0.1250 (  3669 PWs)   bands (ev):

    -6.5953  -0.6383   2.2522   2.6593

          k = 0.7500-0.2500 0.7500 (  3685 PWs)   bands (ev):

    -6.1037  -1.5923   1.4233   2.6469

          k = 0.6250-0.1250 0.6250 (  3676 PWs)   bands (ev):

    -6.0287  -1.7046   1.0051   2.9362

          k = 0.5000 0.0000 0.5000 (  3669 PWs)   bands (ev):

    -6.4585  -0.9924   1.2929   3.4420

          k = 0.0000 0.7500 0.0000 (  3679 PWs)   bands (ev):

    -6.2353  -1.2669   2.2744   2.2744

          k = 0.8750-0.1250 0.8750 (  3680 PWs)   bands (ev):

    -5.8501  -1.8570   1.5687   2.1939

          k = 0.7500 0.0000 0.7500 (  3703 PWs)   bands (ev):

    -5.7543  -1.9162   0.8033   2.4360

          k = 0.0000-1.0000 0.0000 (  3692 PWs)   bands (ev):

    -5.7166  -2.1114   2.0295   2.0295

          k =-0.2500 0.5000 0.0000 (  3662 PWs)   bands (ev):

    -6.9004  -0.0608   2.2630   3.3556

          k = 0.6250-0.3750 0.8750 (  3678 PWs)   bands (ev):

    -6.3604  -1.2313   1.6066   2.9315

          k = 0.5000-0.2500 0.7500 (  3674 PWs)   bands (ev):

    -6.0639  -1.7898   1.4288   2.7355

          k = 0.7500-0.2500 1.0000 (  3683 PWs)   bands (ev):

    -6.1419  -1.3851   1.6306   2.2024

          k = 0.6250-0.1250 0.8750 (  3686 PWs)   bands (ev):

    -5.8111  -1.8239   0.9969   2.0254

          k = 0.5000 0.0000 0.7500 (  3671 PWs)   bands (ev):

    -5.9306  -1.6658   0.8511   2.3614

          k =-0.2500-1.0000 0.0000 (  3690 PWs)   bands (ev):

    -5.6965  -2.0156   1.5246   1.6507

          k =-0.5000-1.0000 0.0000 (  3704 PWs)   bands (ev):

    -5.6760  -1.9057   1.1015   1.3510

     highest occupied level (ev):     4.5861

!    total energy              =     -17.32445950 Ry
     estimated scf accuracy    <          6.5E-10 Ry

     The total energy is the sum of the following terms:
     one-electron contribution =       2.72670978 Ry
     hartree contribution      =       1.55978369 Ry
     xc contribution           =      -4.76690180 Ry
     ewald contribution        =     -16.84405117 Ry

     convergence has been achieved in  15 iterations

     Writing all to output data dir ./SCRATCH/gallium_arsenide.save/

     init_run     :      0.48s CPU      0.53s WALL (       1 calls)
     electrons    :     11.95s CPU     12.32s WALL (       1 calls)

     Called by init_run:
     wfcinit      :      0.45s CPU      0.45s WALL (       1 calls)
     potinit      :      0.00s CPU      0.02s WALL (       1 calls)
     hinit0       :      0.03s CPU      0.04s WALL (       1 calls)

     Called by electrons:
     c_bands      :     10.22s CPU     10.54s WALL (      16 calls)
     sum_band     :      1.64s CPU      1.64s WALL (      16 calls)
     v_of_rho     :      0.03s CPU      0.07s WALL (      16 calls)
     mix_rho      :      0.05s CPU      0.07s WALL (      16 calls)

     Called by c_bands:
     init_us_2    :      0.20s CPU      0.33s WALL (     957 calls)
     init_us_2:cp :      0.20s CPU      0.33s WALL (     957 calls)
     cegterg      :     10.08s CPU     10.23s WALL (     464 calls)

     Called by *egterg:
     cdiaghg      :      0.05s CPU      0.03s WALL (    1809 calls)
     h_psi        :      9.89s CPU      9.85s WALL (    1867 calls)
     g_psi        :      0.05s CPU      0.04s WALL (    1374 calls)

     Called by h_psi:
     h_psi:calbec :      0.16s CPU      0.20s WALL (    1867 calls)
     vloc_psi     :      9.52s CPU      9.46s WALL (    1867 calls)
     add_vuspsi   :      0.19s CPU      0.15s WALL (    1867 calls)

     General routines
     calbec       :      0.16s CPU      0.19s WALL (    1867 calls)
     fft          :      0.06s CPU      0.05s WALL (      48 calls)
     ffts         :      0.00s CPU      0.02s WALL (      16 calls)
     fftw         :     10.17s CPU      9.96s WALL (   14200 calls)


     PWSCF        :     12.47s CPU     12.88s WALL


   This run was terminated on:  12:15: 8  25May2024            

=------------------------------------------------------------------------------=
   JOB DONE.
=------------------------------------------------------------------------------=
