
     Program PWSCF v.7.2 starts on 25May2024 at 12:14:28 

     This program is part of the open-source Quantum ESPRESSO suite
     for quantum simulation of materials; please cite
         "P. Giannozzi et al., J. Phys.:Condens. Matter 21 395502 (2009);
         "P. Giannozzi et al., J. Phys.:Condens. Matter 29 465901 (2017);
         "P. Giannozzi et al., J. Chem. Phys. 152 154105 (2020);
          URL http://www.quantum-espresso.org", 
     in publications or presentations arising from this work. More details at
     http://www.quantum-espresso.org/quote

     Serial version
     8221 MiB available memory on the printing compute node when the environment starts

     Waiting for input...
     Reading input from standard input

     Current dimensions of program PWSCF are:
     Max number of different atomic species (ntypx) = 10
     Max number of k-points (npk) =  40000
     Max angular momentum in pseudopotentials (lmaxx) =  4


     G-vector sticks info
     --------------------
     sticks:   dense  smooth     PW     G-vecs:    dense   smooth      PW
     Sum         769     769    241                14361    14361    2445

     Using Slab Decomposition



     bravais-lattice index     =            2
     lattice parameter (alat)  =      10.6829  a.u.
     unit-cell volume          =     304.7951 (a.u.)^3
     number of atoms/cell      =            2
     number of atomic types    =            2
     number of electrons       =         8.00
     number of Kohn-Sham states=            4
     kinetic-energy cutoff     =      50.0000  Ry
     charge density cutoff     =     200.0000  Ry
     scf convergence threshold =      1.0E-08
     mixing beta               =       0.7000
     number of iterations used =            8  plain     mixing
     Exchange-correlation= SLA  PZ   NOGX NOGC
                           (   1   1   0   0   0   0   0)

     celldm(1)=  10.682904  celldm(2)=   0.000000  celldm(3)=   0.000000
     celldm(4)=   0.000000  celldm(5)=   0.000000  celldm(6)=   0.000000

     crystal axes: (cart. coord. in units of alat)
               a(1) = (  -0.500000   0.000000   0.500000 )  
               a(2) = (   0.000000   0.500000   0.500000 )  
               a(3) = (  -0.500000   0.500000   0.000000 )  

     reciprocal axes: (cart. coord. in units 2 pi/alat)
               b(1) = ( -1.000000 -1.000000  1.000000 )  
               b(2) = (  1.000000  1.000000  1.000000 )  
               b(3) = ( -1.000000  1.000000 -1.000000 )  


     PseudoPot. # 1 for Ga read from file:
     /home/paolo/project_labqsm/pseudopotentials/Ga.pz-bhs.UPF
     MD5 check sum: 09b06f4702dea281feaf053846378b49
     Pseudo is Norm-conserving, Zval =  3.0
     Generated by new atomic code, or converted to UPF format
     Using radial grid of  523 points,  2 beta functions with: 
                l(1) =   0
                l(2) =   1

     PseudoPot. # 2 for As read from file:
     /home/paolo/project_labqsm/pseudopotentials/As.pz-bhs.UPF
     MD5 check sum: d67708448008dff3ec15a9356ed645c7
     Pseudo is Norm-conserving, Zval =  5.0
     Generated by new atomic code, or converted to UPF format
     Using radial grid of  525 points,  2 beta functions with: 
                l(1) =   0
                l(2) =   1

     atomic species   valence    mass     pseudopotential
        Ga             3.00    69.72300     Ga( 1.00)
        As             5.00    74.92200     As( 1.00)

     24 Sym. Ops. (no inversion) found



   Cartesian axes

     site n.     atom                  positions (alat units)
         1           Ga  tau(   1) = (   0.0000000   0.0000000   0.0000000  )
         2           As  tau(   2) = (   0.2500000   0.2500000   0.2500000  )

     number of k points=    29
                       cart. coord. in units 2pi/alat
        k(    1) = (   0.0000000   0.0000000   0.0000000), wk =   0.0039062
        k(    2) = (  -0.1250000   0.1250000  -0.1250000), wk =   0.0312500
        k(    3) = (  -0.2500000   0.2500000  -0.2500000), wk =   0.0312500
        k(    4) = (  -0.3750000   0.3750000  -0.3750000), wk =   0.0312500
        k(    5) = (   0.5000000  -0.5000000   0.5000000), wk =   0.0156250
        k(    6) = (   0.0000000   0.2500000   0.0000000), wk =   0.0234375
        k(    7) = (  -0.1250000   0.3750000  -0.1250000), wk =   0.0937500
        k(    8) = (  -0.2500000   0.5000000  -0.2500000), wk =   0.0937500
        k(    9) = (   0.6250000  -0.3750000   0.6250000), wk =   0.0937500
        k(   10) = (   0.5000000  -0.2500000   0.5000000), wk =   0.0937500
        k(   11) = (   0.3750000  -0.1250000   0.3750000), wk =   0.0937500
        k(   12) = (   0.2500000   0.0000000   0.2500000), wk =   0.0468750
        k(   13) = (   0.0000000   0.5000000   0.0000000), wk =   0.0234375
        k(   14) = (  -0.1250000   0.6250000  -0.1250000), wk =   0.0937500
        k(   15) = (   0.7500000  -0.2500000   0.7500000), wk =   0.0937500
        k(   16) = (   0.6250000  -0.1250000   0.6250000), wk =   0.0937500
        k(   17) = (   0.5000000   0.0000000   0.5000000), wk =   0.0468750
        k(   18) = (   0.0000000   0.7500000   0.0000000), wk =   0.0234375
        k(   19) = (   0.8750000  -0.1250000   0.8750000), wk =   0.0937500
        k(   20) = (   0.7500000   0.0000000   0.7500000), wk =   0.0468750
        k(   21) = (   0.0000000  -1.0000000   0.0000000), wk =   0.0117188
        k(   22) = (  -0.2500000   0.5000000   0.0000000), wk =   0.0937500
        k(   23) = (   0.6250000  -0.3750000   0.8750000), wk =   0.1875000
        k(   24) = (   0.5000000  -0.2500000   0.7500000), wk =   0.0937500
        k(   25) = (   0.7500000  -0.2500000   1.0000000), wk =   0.0937500
        k(   26) = (   0.6250000  -0.1250000   0.8750000), wk =   0.1875000
        k(   27) = (   0.5000000   0.0000000   0.7500000), wk =   0.0937500
        k(   28) = (  -0.2500000  -1.0000000   0.0000000), wk =   0.0468750
        k(   29) = (  -0.5000000  -1.0000000   0.0000000), wk =   0.0234375

     Dense  grid:    14361 G-vectors     FFT dimensions: (  36,  36,  36)

     Estimated max dynamical RAM per process >      13.81 MB

     Initial potential from superposition of free atoms

     starting charge       7.9979, renormalised to       8.0000
     Starting wfcs are    8 randomized atomic wfcs

     total cpu time spent up to now is        0.3 secs

     Self-consistent Calculation

     iteration #  1     ecut=    50.00 Ry     beta= 0.70
     Davidson diagonalization with overlap
     ethr =  1.00E-02,  avg # of iterations =  1.4

     Threshold (ethr) on eigenvalues was too large:
     Diagonalizing with lowered threshold

     Davidson diagonalization with overlap
     ethr =  4.64E-04,  avg # of iterations =  3.2

     total cpu time spent up to now is        0.8 secs

     total energy              =     -17.31711986 Ry
     estimated scf accuracy    <       0.04111391 Ry

     iteration #  2     ecut=    50.00 Ry     beta= 0.70
     Davidson diagonalization with overlap
     ethr =  5.14E-04,  avg # of iterations =  2.0

     total cpu time spent up to now is        1.1 secs

     total energy              =     -17.32351606 Ry
     estimated scf accuracy    <       0.00270744 Ry

     iteration #  3     ecut=    50.00 Ry     beta= 0.70
     Davidson diagonalization with overlap
     ethr =  3.38E-05,  avg # of iterations =  3.1

     total cpu time spent up to now is        1.4 secs

     total energy              =     -17.32413785 Ry
     estimated scf accuracy    <       0.00044374 Ry

     iteration #  4     ecut=    50.00 Ry     beta= 0.70
     Davidson diagonalization with overlap
     ethr =  5.55E-06,  avg # of iterations =  3.2

     total cpu time spent up to now is        1.8 secs

     total energy              =     -17.32444742 Ry
     estimated scf accuracy    <       0.00018693 Ry

     iteration #  5     ecut=    50.00 Ry     beta= 0.70
     Davidson diagonalization with overlap
     ethr =  2.34E-06,  avg # of iterations =  2.2

     total cpu time spent up to now is        2.1 secs

     total energy              =     -17.32436060 Ry
     estimated scf accuracy    <       0.00027607 Ry

     iteration #  6     ecut=    50.00 Ry     beta= 0.70
     Davidson diagonalization with overlap
     ethr =  2.34E-06,  avg # of iterations =  1.4

     total cpu time spent up to now is        2.3 secs

     total energy              =     -17.32434916 Ry
     estimated scf accuracy    <       0.00008249 Ry

     iteration #  7     ecut=    50.00 Ry     beta= 0.70
     Davidson diagonalization with overlap
     ethr =  1.03E-06,  avg # of iterations =  1.8

     total cpu time spent up to now is        2.6 secs

     total energy              =     -17.32435477 Ry
     estimated scf accuracy    <       0.00002518 Ry

     iteration #  8     ecut=    50.00 Ry     beta= 0.70
     Davidson diagonalization with overlap
     ethr =  3.15E-07,  avg # of iterations =  2.9

     total cpu time spent up to now is        2.9 secs

     total energy              =     -17.32435917 Ry
     estimated scf accuracy    <       0.00001054 Ry

     iteration #  9     ecut=    50.00 Ry     beta= 0.70
     Davidson diagonalization with overlap
     ethr =  1.32E-07,  avg # of iterations =  2.2

     total cpu time spent up to now is        3.1 secs

     total energy              =     -17.32436014 Ry
     estimated scf accuracy    <       0.00000618 Ry

     iteration # 10     ecut=    50.00 Ry     beta= 0.70
     Davidson diagonalization with overlap
     ethr =  7.73E-08,  avg # of iterations =  1.5

     total cpu time spent up to now is        3.4 secs

     total energy              =     -17.32435907 Ry
     estimated scf accuracy    <       0.00000471 Ry

     iteration # 11     ecut=    50.00 Ry     beta= 0.70
     Davidson diagonalization with overlap
     ethr =  5.89E-08,  avg # of iterations =  1.9

     total cpu time spent up to now is        3.6 secs

     total energy              =     -17.32435937 Ry
     estimated scf accuracy    <       0.00000139 Ry

     iteration # 12     ecut=    50.00 Ry     beta= 0.70
     Davidson diagonalization with overlap
     ethr =  1.74E-08,  avg # of iterations =  2.7

     total cpu time spent up to now is        3.9 secs

     total energy              =     -17.32435934 Ry
     estimated scf accuracy    <       0.00000075 Ry

     iteration # 13     ecut=    50.00 Ry     beta= 0.70
     Davidson diagonalization with overlap
     ethr =  9.36E-09,  avg # of iterations =  3.0

     total cpu time spent up to now is        4.2 secs

     total energy              =     -17.32435951 Ry
     estimated scf accuracy    <       0.00000006 Ry

     iteration # 14     ecut=    50.00 Ry     beta= 0.70
     Davidson diagonalization with overlap
     ethr =  7.36E-10,  avg # of iterations =  5.3

     total cpu time spent up to now is        4.6 secs

     End of self-consistent calculation

          k = 0.0000 0.0000 0.0000 (  1837 PWs)   bands (ev):

    -7.8526   4.5863   4.5863   4.5863

          k =-0.1250 0.1250-0.1250 (  1829 PWs)   bands (ev):

    -7.7004   2.6757   4.3678   4.3678

          k =-0.2500 0.2500-0.2500 (  1829 PWs)   bands (ev):

    -7.2699   0.4844   3.9561   3.9561

          k =-0.3750 0.3750-0.3750 (  1838 PWs)   bands (ev):

    -6.6892  -1.2317   3.6384   3.6384

          k = 0.5000-0.5000 0.5000 (  1802 PWs)   bands (ev):

    -6.3617  -1.9484   3.5244   3.5244

          k = 0.0000 0.2500 0.0000 (  1828 PWs)   bands (ev):

    -7.6490   2.6463   3.9633   3.9633

          k =-0.1250 0.3750-0.1250 (  1822 PWs)   bands (ev):

    -7.3081   0.9868   3.4754   3.4985

          k =-0.2500 0.5000-0.2500 (  1840 PWs)   bands (ev):

    -6.7603  -0.7468   2.8870   3.2256

          k = 0.6250-0.3750 0.6250 (  1815 PWs)   bands (ev):

    -6.2949  -1.7969   2.4610   3.2232

          k = 0.5000-0.2500 0.5000 (  1811 PWs)   bands (ev):

    -6.4112  -1.5563   2.3243   3.4824

          k = 0.3750-0.1250 0.3750 (  1831 PWs)   bands (ev):

    -6.9588  -0.2104   2.5501   3.9218

          k = 0.2500 0.0000 0.2500 (  1839 PWs)   bands (ev):

    -7.4537   1.4844   3.2775   4.3355

          k = 0.0000 0.5000 0.0000 (  1828 PWs)   bands (ev):

    -7.0646   0.5184   2.9741   2.9741

          k =-0.1250 0.6250-0.1250 (  1815 PWs)   bands (ev):

    -6.5948  -0.6382   2.2523   2.6594

          k = 0.7500-0.2500 0.7500 (  1809 PWs)   bands (ev):

    -6.1032  -1.5922   1.4234   2.6470

          k = 0.6250-0.1250 0.6250 (  1814 PWs)   bands (ev):

    -6.0281  -1.7046   1.0052   2.9363

          k = 0.5000 0.0000 0.5000 (  1829 PWs)   bands (ev):

    -6.4580  -0.9923   1.2929   3.4421

          k = 0.0000 0.7500 0.0000 (  1796 PWs)   bands (ev):

    -6.2347  -1.2667   2.2745   2.2745

          k = 0.8750-0.1250 0.8750 (  1800 PWs)   bands (ev):

    -5.8495  -1.8570   1.5687   2.1940

          k = 0.7500 0.0000 0.7500 (  1822 PWs)   bands (ev):

    -5.7537  -1.9162   0.8034   2.4361

          k = 0.0000-1.0000 0.0000 (  1772 PWs)   bands (ev):

    -5.7159  -2.1114   2.0296   2.0296

          k =-0.2500 0.5000 0.0000 (  1833 PWs)   bands (ev):

    -6.8999  -0.0606   2.2631   3.3557

          k = 0.6250-0.3750 0.8750 (  1815 PWs)   bands (ev):

    -6.3599  -1.2312   1.6067   2.9316

          k = 0.5000-0.2500 0.7500 (  1808 PWs)   bands (ev):

    -6.0632  -1.7897   1.4289   2.7356

          k = 0.7500-0.2500 1.0000 (  1807 PWs)   bands (ev):

    -6.1413  -1.3850   1.6307   2.2025

          k = 0.6250-0.1250 0.8750 (  1817 PWs)   bands (ev):

    -5.8105  -1.8239   0.9970   2.0255

          k = 0.5000 0.0000 0.7500 (  1823 PWs)   bands (ev):

    -5.9300  -1.6658   0.8512   2.3614

          k =-0.2500-1.0000 0.0000 (  1798 PWs)   bands (ev):

    -5.6958  -2.0156   1.5247   1.6508

          k =-0.5000-1.0000 0.0000 (  1800 PWs)   bands (ev):

    -5.6753  -1.9057   1.1016   1.3511

     highest occupied level (ev):     4.5863

!    total energy              =     -17.32435957 Ry
     estimated scf accuracy    <          2.4E-09 Ry

     The total energy is the sum of the following terms:
     one-electron contribution =       2.72682155 Ry
     hartree contribution      =       1.55976848 Ry
     xc contribution           =      -4.76689838 Ry
     ewald contribution        =     -16.84405122 Ry

     convergence has been achieved in  14 iterations

     Writing all to output data dir ./SCRATCH/gallium_arsenide.save/

     init_run     :      0.23s CPU      0.24s WALL (       1 calls)
     electrons    :      4.20s CPU      4.40s WALL (       1 calls)

     Called by init_run:
     wfcinit      :      0.19s CPU      0.19s WALL (       1 calls)
     potinit      :      0.02s CPU      0.01s WALL (       1 calls)
     hinit0       :      0.03s CPU      0.03s WALL (       1 calls)

     Called by electrons:
     c_bands      :      3.52s CPU      3.69s WALL (      15 calls)
     sum_band     :      0.62s CPU      0.64s WALL (      15 calls)
     v_of_rho     :      0.03s CPU      0.03s WALL (      15 calls)
     mix_rho      :      0.05s CPU      0.03s WALL (      15 calls)

     Called by c_bands:
     init_us_2    :      0.16s CPU      0.16s WALL (     899 calls)
     init_us_2:cp :      0.16s CPU      0.16s WALL (     899 calls)
     cegterg      :      3.39s CPU      3.50s WALL (     435 calls)

     Called by *egterg:
     cdiaghg      :      0.06s CPU      0.03s WALL (    1508 calls)
     h_psi        :      3.27s CPU      3.34s WALL (    1566 calls)
     g_psi        :      0.00s CPU      0.02s WALL (    1102 calls)

     Called by h_psi:
     h_psi:calbec :      0.11s CPU      0.09s WALL (    1566 calls)
     vloc_psi     :      3.12s CPU      3.16s WALL (    1566 calls)
     add_vuspsi   :      0.02s CPU      0.06s WALL (    1566 calls)

     General routines
     calbec       :      0.11s CPU      0.08s WALL (    1566 calls)
     fft          :      0.05s CPU      0.02s WALL (      45 calls)
     ffts         :      0.00s CPU      0.01s WALL (      15 calls)
     fftw         :      3.38s CPU      3.29s WALL (   11830 calls)


     PWSCF        :      4.45s CPU      4.66s WALL


   This run was terminated on:  12:14:33  25May2024            

=------------------------------------------------------------------------------=
   JOB DONE.
=------------------------------------------------------------------------------=
