
     Program PWSCF v.7.2 starts on 11Jun2024 at 11:14:34 

     This program is part of the open-source Quantum ESPRESSO suite
     for quantum simulation of materials; please cite
         "P. Giannozzi et al., J. Phys.:Condens. Matter 21 395502 (2009);
         "P. Giannozzi et al., J. Phys.:Condens. Matter 29 465901 (2017);
         "P. Giannozzi et al., J. Chem. Phys. 152 154105 (2020);
          URL http://www.quantum-espresso.org", 
     in publications or presentations arising from this work. More details at
     http://www.quantum-espresso.org/quote

     Serial version
     8930 MiB available memory on the printing compute node when the environment starts

     Waiting for input...
     Reading input from standard input

     Current dimensions of program PWSCF are:
     Max number of different atomic species (ntypx) = 10
     Max number of k-points (npk) =  40000
     Max angular momentum in pseudopotentials (lmaxx) =  4
     file Ga.pbe-dn-rrkjus_psl.0.2.UPF: wavefunction(s)  4S 3D renormalized


     G-vector sticks info
     --------------------
     sticks:   dense  smooth     PW     G-vecs:    dense   smooth      PW
     Sum        2749    1099    313                95097    24045    3839

     Using Slab Decomposition



     bravais-lattice index     =            2
     lattice parameter (alat)  =      10.6829  a.u.
     unit-cell volume          =     304.7951 (a.u.)^3
     number of atoms/cell      =            2
     number of atomic types    =            2
     number of electrons       =        18.00
     number of Kohn-Sham states=            9
     kinetic-energy cutoff     =      70.0000  Ry
     charge density cutoff     =     700.0000  Ry
     scf convergence threshold =      1.0E-08
     mixing beta               =       0.7000
     number of iterations used =            8  plain     mixing
     Exchange-correlation= PBE
                           (   1   4   3   4   0   0   0)

     celldm(1)=  10.682904  celldm(2)=   0.000000  celldm(3)=   0.000000
     celldm(4)=   0.000000  celldm(5)=   0.000000  celldm(6)=   0.000000

     crystal axes: (cart. coord. in units of alat)
               a(1) = (  -0.500000   0.000000   0.500000 )  
               a(2) = (   0.000000   0.500000   0.500000 )  
               a(3) = (  -0.500000   0.500000   0.000000 )  

     reciprocal axes: (cart. coord. in units 2 pi/alat)
               b(1) = ( -1.000000 -1.000000  1.000000 )  
               b(2) = (  1.000000  1.000000  1.000000 )  
               b(3) = ( -1.000000  1.000000 -1.000000 )  


     PseudoPot. # 1 for Ga read from file:
     /home/paolo/project_labqsm/pseudopotentials/Ga.pbe-dn-rrkjus_psl.0.2.UPF
     MD5 check sum: ffdfce4fe0c152725d7fa40f12f9e9e5
     Pseudo is Ultrasoft + core correction, Zval = 13.0
     Generated using "atomic" code by A. Dal Corso  v.5.0.2 svn rev. 9415
     Using radial grid of 1205 points,  6 beta functions with: 
                l(1) =   0
                l(2) =   0
                l(3) =   1
                l(4) =   1
                l(5) =   2
                l(6) =   2
     Q(r) pseudized with 0 coefficients 


     PseudoPot. # 2 for As read from file:
     /home/paolo/project_labqsm/pseudopotentials/As.pbe-n-rrkjus_psl.0.2.UPF
     MD5 check sum: f98050c7212d27f7cb33035312670de9
     Pseudo is Ultrasoft + core correction, Zval =  5.0
     Generated using "atomic" code by A. Dal Corso  v.5.0.2 svn rev. 9415
     Using radial grid of 1209 points,  4 beta functions with: 
                l(1) =   0
                l(2) =   0
                l(3) =   1
                l(4) =   1
     Q(r) pseudized with 0 coefficients 


     atomic species   valence    mass     pseudopotential
        Ga            13.00    69.72300     Ga( 1.00)
        As             5.00    74.92200     As( 1.00)

     24 Sym. Ops. (no inversion) found



   Cartesian axes

     site n.     atom                  positions (alat units)
         1           Ga  tau(   1) = (   0.0000000   0.0000000   0.0000000  )
         2           As  tau(   2) = (   0.2500000   0.2500000   0.2500000  )

     number of k points=    29
                       cart. coord. in units 2pi/alat
        k(    1) = (   0.0000000   0.0000000   0.0000000), wk =   0.0039062
        k(    2) = (  -0.1250000   0.1250000  -0.1250000), wk =   0.0312500
        k(    3) = (  -0.2500000   0.2500000  -0.2500000), wk =   0.0312500
        k(    4) = (  -0.3750000   0.3750000  -0.3750000), wk =   0.0312500
        k(    5) = (   0.5000000  -0.5000000   0.5000000), wk =   0.0156250
        k(    6) = (   0.0000000   0.2500000   0.0000000), wk =   0.0234375
        k(    7) = (  -0.1250000   0.3750000  -0.1250000), wk =   0.0937500
        k(    8) = (  -0.2500000   0.5000000  -0.2500000), wk =   0.0937500
        k(    9) = (   0.6250000  -0.3750000   0.6250000), wk =   0.0937500
        k(   10) = (   0.5000000  -0.2500000   0.5000000), wk =   0.0937500
        k(   11) = (   0.3750000  -0.1250000   0.3750000), wk =   0.0937500
        k(   12) = (   0.2500000   0.0000000   0.2500000), wk =   0.0468750
        k(   13) = (   0.0000000   0.5000000   0.0000000), wk =   0.0234375
        k(   14) = (  -0.1250000   0.6250000  -0.1250000), wk =   0.0937500
        k(   15) = (   0.7500000  -0.2500000   0.7500000), wk =   0.0937500
        k(   16) = (   0.6250000  -0.1250000   0.6250000), wk =   0.0937500
        k(   17) = (   0.5000000   0.0000000   0.5000000), wk =   0.0468750
        k(   18) = (   0.0000000   0.7500000   0.0000000), wk =   0.0234375
        k(   19) = (   0.8750000  -0.1250000   0.8750000), wk =   0.0937500
        k(   20) = (   0.7500000   0.0000000   0.7500000), wk =   0.0468750
        k(   21) = (   0.0000000  -1.0000000   0.0000000), wk =   0.0117188
        k(   22) = (  -0.2500000   0.5000000   0.0000000), wk =   0.0937500
        k(   23) = (   0.6250000  -0.3750000   0.8750000), wk =   0.1875000
        k(   24) = (   0.5000000  -0.2500000   0.7500000), wk =   0.0937500
        k(   25) = (   0.7500000  -0.2500000   1.0000000), wk =   0.0937500
        k(   26) = (   0.6250000  -0.1250000   0.8750000), wk =   0.1875000
        k(   27) = (   0.5000000   0.0000000   0.7500000), wk =   0.0937500
        k(   28) = (  -0.2500000  -1.0000000   0.0000000), wk =   0.0468750
        k(   29) = (  -0.5000000  -1.0000000   0.0000000), wk =   0.0234375

     Dense  grid:    95097 G-vectors     FFT dimensions: (  64,  64,  64)

     Smooth grid:    24045 G-vectors     FFT dimensions: (  45,  45,  45)

     Estimated max dynamical RAM per process >     349.11 MB

     Initial potential from superposition of free atoms

     starting charge      17.9968, renormalised to      18.0000
     Starting wfcs are   13 randomized atomic wfcs

     total cpu time spent up to now is        2.1 secs

     Self-consistent Calculation

     iteration #  1     ecut=    70.00 Ry     beta= 0.70
     Davidson diagonalization with overlap
     ethr =  1.00E-02,  avg # of iterations =  1.5

     Threshold (ethr) on eigenvalues was too large:
     Diagonalizing with lowered threshold

     Davidson diagonalization with overlap
     ethr =  2.96E-04,  avg # of iterations =  2.0

     total cpu time spent up to now is        6.5 secs

     total energy              =    -191.01205525 Ry
     estimated scf accuracy    <       0.05070300 Ry

     iteration #  2     ecut=    70.00 Ry     beta= 0.70
     Davidson diagonalization with overlap
     ethr =  2.82E-04,  avg # of iterations =  2.5

     total cpu time spent up to now is        9.2 secs

     total energy              =    -191.02225342 Ry
     estimated scf accuracy    <       0.00970990 Ry

     iteration #  3     ecut=    70.00 Ry     beta= 0.70
     Davidson diagonalization with overlap
     ethr =  5.39E-05,  avg # of iterations =  2.0

     total cpu time spent up to now is       12.0 secs

     total energy              =    -191.02406398 Ry
     estimated scf accuracy    <       0.00043542 Ry

     iteration #  4     ecut=    70.00 Ry     beta= 0.70
     Davidson diagonalization with overlap
     ethr =  2.42E-06,  avg # of iterations =  2.8

     total cpu time spent up to now is       14.9 secs

     total energy              =    -191.02415662 Ry
     estimated scf accuracy    <       0.00006929 Ry

     iteration #  5     ecut=    70.00 Ry     beta= 0.70
     Davidson diagonalization with overlap
     ethr =  3.85E-07,  avg # of iterations =  2.0

     total cpu time spent up to now is       17.4 secs

     total energy              =    -191.02415178 Ry
     estimated scf accuracy    <       0.00001528 Ry

     iteration #  6     ecut=    70.00 Ry     beta= 0.70
     Davidson diagonalization with overlap
     ethr =  8.49E-08,  avg # of iterations =  3.4

     total cpu time spent up to now is       20.3 secs

     total energy              =    -191.02415612 Ry
     estimated scf accuracy    <       0.00001491 Ry

     iteration #  7     ecut=    70.00 Ry     beta= 0.70
     Davidson diagonalization with overlap
     ethr =  8.28E-08,  avg # of iterations =  2.0

     total cpu time spent up to now is       22.8 secs

     total energy              =    -191.02415817 Ry
     estimated scf accuracy    <       0.00000022 Ry

     iteration #  8     ecut=    70.00 Ry     beta= 0.70
     Davidson diagonalization with overlap
     ethr =  1.24E-09,  avg # of iterations =  4.8

     total cpu time spent up to now is       26.0 secs

     total energy              =    -191.02415834 Ry
     estimated scf accuracy    <       0.00000006 Ry

     iteration #  9     ecut=    70.00 Ry     beta= 0.70
     Davidson diagonalization with overlap
     ethr =  3.26E-10,  avg # of iterations =  2.0

     total cpu time spent up to now is       28.5 secs

     total energy              =    -191.02415834 Ry
     estimated scf accuracy    <       0.00000001 Ry

     iteration # 10     ecut=    70.00 Ry     beta= 0.70
     Davidson diagonalization with overlap
     ethr =  6.36E-11,  avg # of iterations =  3.6

     total cpu time spent up to now is       31.3 secs

     total energy              =    -191.02415834 Ry
     estimated scf accuracy    <       0.00000001 Ry

     iteration # 11     ecut=    70.00 Ry     beta= 0.70
     Davidson diagonalization with overlap
     ethr =  5.79E-11,  avg # of iterations =  2.0

     total cpu time spent up to now is       33.9 secs

     End of self-consistent calculation

          k = 0.0000 0.0000 0.0000 (  2975 PWs)   bands (ev):

    -8.0216  -8.0216  -8.0216  -7.9427  -7.9427  -5.9556   6.7784   6.7784
     6.7784

          k =-0.1250 0.1250-0.1250 (  3008 PWs)   bands (ev):

    -8.0350  -8.0181  -8.0181  -7.9428  -7.9428  -5.7734   4.8140   6.5409
     6.5409

          k =-0.2500 0.2500-0.2500 (  2989 PWs)   bands (ev):

    -8.0642  -8.0104  -8.0104  -7.9421  -7.9421  -5.2643   2.6337   6.0976
     6.0976

          k =-0.3750 0.3750-0.3750 (  3004 PWs)   bands (ev):

    -8.0903  -8.0043  -8.0043  -7.9397  -7.9397  -4.5823   0.8834   5.7564
     5.7564

          k = 0.5000-0.5000 0.5000 (  2998 PWs)   bands (ev):

    -8.1003  -8.0023  -8.0023  -7.9382  -7.9382  -4.1935   0.1296   5.6339
     5.6339

          k = 0.0000 0.2500 0.0000 (  2998 PWs)   bands (ev):

    -8.0427  -8.0147  -8.0147  -7.9456  -7.9406  -5.7127   4.7875   6.1175
     6.1175

          k =-0.1250 0.3750-0.1250 (  2988 PWs)   bands (ev):

    -8.0658  -8.0082  -8.0066  -7.9479  -7.9387  -5.3110   3.1432   5.6059
     5.6271

          k =-0.2500 0.5000-0.2500 (  2997 PWs)   bands (ev):

    -8.0896  -8.0028  -7.9998  -7.9468  -7.9370  -4.6696   1.3846   5.0058
     5.3350

          k = 0.6250-0.3750 0.6250 (  3015 PWs)   bands (ev):

    -8.1025  -8.0002  -7.9974  -7.9428  -7.9373  -4.1196   0.2855   4.5746
     5.3258

          k = 0.5000-0.2500 0.5000 (  3019 PWs)   bands (ev):

    -8.0988  -8.0004  -7.9995  -7.9410  -7.9399  -4.2578   0.5403   4.4368
     5.5931

          k = 0.3750-0.1250 0.3750 (  3012 PWs)   bands (ev):

    -8.0799  -8.0058  -8.0038  -7.9446  -7.9399  -4.9011   1.9332   4.6666
     6.0547

          k = 0.2500 0.0000 0.2500 (  3012 PWs)   bands (ev):

    -8.0539  -8.0141  -8.0106  -7.9448  -7.9410  -5.4813   3.6373   5.4096
     6.4975

          k = 0.0000 0.5000 0.0000 (  3042 PWs)   bands (ev):

    -8.0848  -7.9975  -7.9975  -7.9542  -7.9356  -5.0294   2.6856   5.0823
     5.0823

          k =-0.1250 0.6250-0.1250 (  3011 PWs)   bands (ev):

    -8.1031  -7.9912  -7.9893  -7.9567  -7.9336  -4.4841   1.5066   4.3552
     4.7513

          k = 0.7500-0.2500 0.7500 (  3018 PWs)   bands (ev):

    -8.1121  -7.9914  -7.9862  -7.9533  -7.9346  -3.9046   0.4975   3.5344
     4.7335

          k = 0.6250-0.1250 0.6250 (  3027 PWs)   bands (ev):

    -8.1095  -7.9945  -7.9886  -7.9470  -7.9395  -3.8117   0.3690   3.1192
     5.0303

          k = 0.5000 0.0000 0.5000 (  3008 PWs)   bands (ev):

    -8.0974  -7.9984  -7.9963  -7.9440  -7.9418  -4.3179   1.1268   3.4050
     5.5539

          k = 0.0000 0.7500 0.0000 (  3018 PWs)   bands (ev):

    -8.1193  -7.9798  -7.9798  -7.9639  -7.9306  -4.0695   0.8608   4.3509
     4.3509

          k = 0.8750-0.1250 0.8750 (  3017 PWs)   bands (ev):

    -8.1258  -7.9790  -7.9760  -7.9632  -7.9306  -3.6130   0.2228   3.6564
     4.2650

          k = 0.7500 0.0000 0.7500 (  3032 PWs)   bands (ev):

    -8.1206  -7.9860  -7.9791  -7.9563  -7.9349  -3.4908   0.1376   2.9088
     4.5142

          k = 0.0000-1.0000 0.0000 (  3026 PWs)   bands (ev):

    -8.1322  -7.9723  -7.9723  -7.9681  -7.9285  -3.4552  -0.0476   4.0943
     4.0943

          k =-0.2500 0.5000 0.0000 (  3007 PWs)   bands (ev):

    -8.0864  -8.0011  -7.9983  -7.9505  -7.9369  -4.8354   2.0914   4.3733
     5.4741

          k = 0.6250-0.3750 0.8750 (  3020 PWs)   bands (ev):

    -8.1026  -7.9975  -7.9915  -7.9491  -7.9371  -4.2042   0.8791   3.7180
     5.0368

          k = 0.5000-0.2500 0.7500 (  3026 PWs)   bands (ev):

    -8.1087  -7.9968  -7.9890  -7.9466  -7.9383  -3.8514   0.2822   3.5439
     4.8344

          k = 0.7500-0.2500 1.0000 (  3011 PWs)   bands (ev):

    -8.1152  -7.9875  -7.9818  -7.9581  -7.9331  -3.9552   0.7236   3.7277
     4.2941

          k = 0.6250-0.1250 0.8750 (  3024 PWs)   bands (ev):

    -8.1177  -7.9901  -7.9793  -7.9542  -7.9360  -3.5585   0.2363   3.1063
     4.1162

          k = 0.5000 0.0000 0.7500 (  3030 PWs)   bands (ev):

    -8.1126  -7.9940  -7.9828  -7.9501  -7.9388  -3.6988   0.4053   2.9629
     4.4588

          k =-0.2500-1.0000 0.0000 (  3016 PWs)   bands (ev):

    -8.1260  -7.9811  -7.9753  -7.9608  -7.9321  -3.4259   0.0386   3.6295
     3.7212

          k =-0.5000-1.0000 0.0000 (  3028 PWs)   bands (ev):

    -8.1190  -7.9908  -7.9766  -7.9535  -7.9375  -3.3960   0.1361   3.2371
     3.4217

     highest occupied level (ev):     6.7784

!    total energy              =    -191.02415835 Ry
     estimated scf accuracy    <          5.9E-10 Ry

     The total energy is the sum of the following terms:
     one-electron contribution =    -111.77941474 Ry
     hartree contribution      =      71.69357132 Ry
     xc contribution           =     -57.91914386 Ry
     ewald contribution        =     -93.01917106 Ry

     convergence has been achieved in  11 iterations

     Writing all to output data dir ./SCRATCH/gallium_arsenide.save/

     init_run     :      1.67s CPU      2.04s WALL (       1 calls)
     electrons    :     25.30s CPU     31.73s WALL (       1 calls)

     Called by init_run:
     wfcinit      :      0.78s CPU      0.78s WALL (       1 calls)
     potinit      :      0.11s CPU      0.17s WALL (       1 calls)
     hinit0       :      0.53s CPU      0.56s WALL (       1 calls)

     Called by electrons:
     c_bands      :     16.92s CPU     17.14s WALL (      12 calls)
     sum_band     :      5.16s CPU      8.41s WALL (      12 calls)
     v_of_rho     :      1.05s CPU      1.16s WALL (      12 calls)
     newd         :      2.27s CPU      5.42s WALL (      12 calls)
     mix_rho      :      0.09s CPU      0.11s WALL (      12 calls)

     Called by c_bands:
     init_us_2    :      0.45s CPU      0.44s WALL (     725 calls)
     init_us_2:cp :      0.45s CPU      0.44s WALL (     725 calls)
     cegterg      :     16.30s CPU     16.40s WALL (     348 calls)

     Called by *egterg:
     cdiaghg      :      0.06s CPU      0.07s WALL (    1209 calls)
     h_psi        :     14.75s CPU     14.79s WALL (    1267 calls)
     s_psi        :      0.52s CPU      0.52s WALL (    1267 calls)
     g_psi        :      0.03s CPU      0.04s WALL (     890 calls)

     Called by h_psi:
     h_psi:calbec :      0.67s CPU      0.73s WALL (    1267 calls)
     vloc_psi     :     13.59s CPU     13.49s WALL (    1267 calls)
     add_vuspsi   :      0.44s CPU      0.53s WALL (    1267 calls)

     General routines
     calbec       :      0.92s CPU      0.98s WALL (    1615 calls)
     fft          :      0.78s CPU      0.66s WALL (     155 calls)
     ffts         :      0.02s CPU      0.03s WALL (      24 calls)
     fftw         :     14.16s CPU     14.02s WALL (   20606 calls)
     interpolate  :      0.09s CPU      0.07s WALL (      12 calls)


     PWSCF        :     27.06s CPU     33.89s WALL


   This run was terminated on:  11:15: 8  11Jun2024            

=------------------------------------------------------------------------------=
   JOB DONE.
=------------------------------------------------------------------------------=
