
     Program PWSCF v.7.2 starts on 11Jun2024 at 11:13:58 

     This program is part of the open-source Quantum ESPRESSO suite
     for quantum simulation of materials; please cite
         "P. Giannozzi et al., J. Phys.:Condens. Matter 21 395502 (2009);
         "P. Giannozzi et al., J. Phys.:Condens. Matter 29 465901 (2017);
         "P. Giannozzi et al., J. Chem. Phys. 152 154105 (2020);
          URL http://www.quantum-espresso.org", 
     in publications or presentations arising from this work. More details at
     http://www.quantum-espresso.org/quote

     Serial version
     8913 MiB available memory on the printing compute node when the environment starts

     Waiting for input...
     Reading input from standard input

     Current dimensions of program PWSCF are:
     Max number of different atomic species (ntypx) = 10
     Max number of k-points (npk) =  40000
     Max angular momentum in pseudopotentials (lmaxx) =  4
     file Ga.pbe-dn-rrkjus_psl.0.2.UPF: wavefunction(s)  4S 3D renormalized


     G-vector sticks info
     --------------------
     sticks:   dense  smooth     PW     G-vecs:    dense   smooth      PW
     Sum        1957     769    241                57439    14361    2445

     Using Slab Decomposition



     bravais-lattice index     =            2
     lattice parameter (alat)  =      10.6829  a.u.
     unit-cell volume          =     304.7951 (a.u.)^3
     number of atoms/cell      =            2
     number of atomic types    =            2
     number of electrons       =        18.00
     number of Kohn-Sham states=            9
     kinetic-energy cutoff     =      50.0000  Ry
     charge density cutoff     =     500.0000  Ry
     scf convergence threshold =      1.0E-08
     mixing beta               =       0.7000
     number of iterations used =            8  plain     mixing
     Exchange-correlation= PBE
                           (   1   4   3   4   0   0   0)

     celldm(1)=  10.682904  celldm(2)=   0.000000  celldm(3)=   0.000000
     celldm(4)=   0.000000  celldm(5)=   0.000000  celldm(6)=   0.000000

     crystal axes: (cart. coord. in units of alat)
               a(1) = (  -0.500000   0.000000   0.500000 )  
               a(2) = (   0.000000   0.500000   0.500000 )  
               a(3) = (  -0.500000   0.500000   0.000000 )  

     reciprocal axes: (cart. coord. in units 2 pi/alat)
               b(1) = ( -1.000000 -1.000000  1.000000 )  
               b(2) = (  1.000000  1.000000  1.000000 )  
               b(3) = ( -1.000000  1.000000 -1.000000 )  


     PseudoPot. # 1 for Ga read from file:
     /home/paolo/project_labqsm/pseudopotentials/Ga.pbe-dn-rrkjus_psl.0.2.UPF
     MD5 check sum: ffdfce4fe0c152725d7fa40f12f9e9e5
     Pseudo is Ultrasoft + core correction, Zval = 13.0
     Generated using "atomic" code by A. Dal Corso  v.5.0.2 svn rev. 9415
     Using radial grid of 1205 points,  6 beta functions with: 
                l(1) =   0
                l(2) =   0
                l(3) =   1
                l(4) =   1
                l(5) =   2
                l(6) =   2
     Q(r) pseudized with 0 coefficients 


     PseudoPot. # 2 for As read from file:
     /home/paolo/project_labqsm/pseudopotentials/As.pbe-n-rrkjus_psl.0.2.UPF
     MD5 check sum: f98050c7212d27f7cb33035312670de9
     Pseudo is Ultrasoft + core correction, Zval =  5.0
     Generated using "atomic" code by A. Dal Corso  v.5.0.2 svn rev. 9415
     Using radial grid of 1209 points,  4 beta functions with: 
                l(1) =   0
                l(2) =   0
                l(3) =   1
                l(4) =   1
     Q(r) pseudized with 0 coefficients 


     atomic species   valence    mass     pseudopotential
        Ga            13.00    69.72300     Ga( 1.00)
        As             5.00    74.92200     As( 1.00)

     24 Sym. Ops. (no inversion) found



   Cartesian axes

     site n.     atom                  positions (alat units)
         1           Ga  tau(   1) = (   0.0000000   0.0000000   0.0000000  )
         2           As  tau(   2) = (   0.2500000   0.2500000   0.2500000  )

     number of k points=    29
                       cart. coord. in units 2pi/alat
        k(    1) = (   0.0000000   0.0000000   0.0000000), wk =   0.0039062
        k(    2) = (  -0.1250000   0.1250000  -0.1250000), wk =   0.0312500
        k(    3) = (  -0.2500000   0.2500000  -0.2500000), wk =   0.0312500
        k(    4) = (  -0.3750000   0.3750000  -0.3750000), wk =   0.0312500
        k(    5) = (   0.5000000  -0.5000000   0.5000000), wk =   0.0156250
        k(    6) = (   0.0000000   0.2500000   0.0000000), wk =   0.0234375
        k(    7) = (  -0.1250000   0.3750000  -0.1250000), wk =   0.0937500
        k(    8) = (  -0.2500000   0.5000000  -0.2500000), wk =   0.0937500
        k(    9) = (   0.6250000  -0.3750000   0.6250000), wk =   0.0937500
        k(   10) = (   0.5000000  -0.2500000   0.5000000), wk =   0.0937500
        k(   11) = (   0.3750000  -0.1250000   0.3750000), wk =   0.0937500
        k(   12) = (   0.2500000   0.0000000   0.2500000), wk =   0.0468750
        k(   13) = (   0.0000000   0.5000000   0.0000000), wk =   0.0234375
        k(   14) = (  -0.1250000   0.6250000  -0.1250000), wk =   0.0937500
        k(   15) = (   0.7500000  -0.2500000   0.7500000), wk =   0.0937500
        k(   16) = (   0.6250000  -0.1250000   0.6250000), wk =   0.0937500
        k(   17) = (   0.5000000   0.0000000   0.5000000), wk =   0.0468750
        k(   18) = (   0.0000000   0.7500000   0.0000000), wk =   0.0234375
        k(   19) = (   0.8750000  -0.1250000   0.8750000), wk =   0.0937500
        k(   20) = (   0.7500000   0.0000000   0.7500000), wk =   0.0468750
        k(   21) = (   0.0000000  -1.0000000   0.0000000), wk =   0.0117188
        k(   22) = (  -0.2500000   0.5000000   0.0000000), wk =   0.0937500
        k(   23) = (   0.6250000  -0.3750000   0.8750000), wk =   0.1875000
        k(   24) = (   0.5000000  -0.2500000   0.7500000), wk =   0.0937500
        k(   25) = (   0.7500000  -0.2500000   1.0000000), wk =   0.0937500
        k(   26) = (   0.6250000  -0.1250000   0.8750000), wk =   0.1875000
        k(   27) = (   0.5000000   0.0000000   0.7500000), wk =   0.0937500
        k(   28) = (  -0.2500000  -1.0000000   0.0000000), wk =   0.0468750
        k(   29) = (  -0.5000000  -1.0000000   0.0000000), wk =   0.0234375

     Dense  grid:    57439 G-vectors     FFT dimensions: (  54,  54,  54)

     Smooth grid:    14361 G-vectors     FFT dimensions: (  36,  36,  36)

     Estimated max dynamical RAM per process >     211.82 MB

     Initial potential from superposition of free atoms

     starting charge      17.9968, renormalised to      18.0000
     Starting wfcs are   13 randomized atomic wfcs

     total cpu time spent up to now is        1.3 secs

     Self-consistent Calculation

     iteration #  1     ecut=    50.00 Ry     beta= 0.70
     Davidson diagonalization with overlap
     ethr =  1.00E-02,  avg # of iterations =  1.4

     Threshold (ethr) on eigenvalues was too large:
     Diagonalizing with lowered threshold

     Davidson diagonalization with overlap
     ethr =  2.95E-04,  avg # of iterations =  2.0

     total cpu time spent up to now is        3.5 secs

     total energy              =    -191.01170187 Ry
     estimated scf accuracy    <       0.05070003 Ry

     iteration #  2     ecut=    50.00 Ry     beta= 0.70
     Davidson diagonalization with overlap
     ethr =  2.82E-04,  avg # of iterations =  2.4

     total cpu time spent up to now is        4.8 secs

     total energy              =    -191.02189056 Ry
     estimated scf accuracy    <       0.00969525 Ry

     iteration #  3     ecut=    50.00 Ry     beta= 0.70
     Davidson diagonalization with overlap
     ethr =  5.39E-05,  avg # of iterations =  2.0

     total cpu time spent up to now is        6.2 secs

     total energy              =    -191.02369005 Ry
     estimated scf accuracy    <       0.00042954 Ry

     iteration #  4     ecut=    50.00 Ry     beta= 0.70
     Davidson diagonalization with overlap
     ethr =  2.39E-06,  avg # of iterations =  2.8

     total cpu time spent up to now is        7.6 secs

     total energy              =    -191.02377929 Ry
     estimated scf accuracy    <       0.00006919 Ry

     iteration #  5     ecut=    50.00 Ry     beta= 0.70
     Davidson diagonalization with overlap
     ethr =  3.84E-07,  avg # of iterations =  2.2

     total cpu time spent up to now is        8.8 secs

     total energy              =    -191.02377506 Ry
     estimated scf accuracy    <       0.00001448 Ry

     iteration #  6     ecut=    50.00 Ry     beta= 0.70
     Davidson diagonalization with overlap
     ethr =  8.04E-08,  avg # of iterations =  3.5

     total cpu time spent up to now is       10.2 secs

     total energy              =    -191.02377942 Ry
     estimated scf accuracy    <       0.00001291 Ry

     iteration #  7     ecut=    50.00 Ry     beta= 0.70
     Davidson diagonalization with overlap
     ethr =  7.17E-08,  avg # of iterations =  2.0

     total cpu time spent up to now is       11.5 secs

     total energy              =    -191.02378139 Ry
     estimated scf accuracy    <       0.00000011 Ry

     iteration #  8     ecut=    50.00 Ry     beta= 0.70
     Davidson diagonalization with overlap
     ethr =  6.31E-10,  avg # of iterations =  5.1

     total cpu time spent up to now is       13.2 secs

     total energy              =    -191.02378151 Ry
     estimated scf accuracy    <       0.00000009 Ry

     iteration #  9     ecut=    50.00 Ry     beta= 0.70
     Davidson diagonalization with overlap
     ethr =  4.95E-10,  avg # of iterations =  2.0

     total cpu time spent up to now is       14.4 secs

     End of self-consistent calculation

          k = 0.0000 0.0000 0.0000 (  1837 PWs)   bands (ev):

    -8.0215  -8.0215  -8.0215  -7.9425  -7.9425  -5.9557   6.7783   6.7783
     6.7783

          k =-0.1250 0.1250-0.1250 (  1829 PWs)   bands (ev):

    -8.0348  -8.0179  -8.0179  -7.9426  -7.9426  -5.7734   4.8140   6.5409
     6.5409

          k =-0.2500 0.2500-0.2500 (  1829 PWs)   bands (ev):

    -8.0640  -8.0102  -8.0102  -7.9419  -7.9419  -5.2644   2.6337   6.0975
     6.0975

          k =-0.3750 0.3750-0.3750 (  1838 PWs)   bands (ev):

    -8.0900  -8.0041  -8.0041  -7.9395  -7.9395  -4.5824   0.8834   5.7564
     5.7564

          k = 0.5000-0.5000 0.5000 (  1802 PWs)   bands (ev):

    -8.1001  -8.0020  -8.0020  -7.9379  -7.9379  -4.1936   0.1296   5.6339
     5.6339

          k = 0.0000 0.2500 0.0000 (  1828 PWs)   bands (ev):

    -8.0425  -8.0145  -8.0145  -7.9454  -7.9404  -5.7128   4.7875   6.1175
     6.1175

          k =-0.1250 0.3750-0.1250 (  1822 PWs)   bands (ev):

    -8.0656  -8.0079  -8.0064  -7.9476  -7.9385  -5.3111   3.1432   5.6058
     5.6271

          k =-0.2500 0.5000-0.2500 (  1840 PWs)   bands (ev):

    -8.0894  -8.0025  -7.9996  -7.9466  -7.9368  -4.6697   1.3846   5.0058
     5.3350

          k = 0.6250-0.3750 0.6250 (  1815 PWs)   bands (ev):

    -8.1023  -7.9999  -7.9972  -7.9425  -7.9371  -4.1198   0.2856   4.5746
     5.3258

          k = 0.5000-0.2500 0.5000 (  1811 PWs)   bands (ev):

    -8.0986  -8.0002  -7.9992  -7.9407  -7.9396  -4.2579   0.5403   4.4368
     5.5931

          k = 0.3750-0.1250 0.3750 (  1831 PWs)   bands (ev):

    -8.0797  -8.0056  -8.0035  -7.9444  -7.9396  -4.9012   1.9332   4.6666
     6.0547

          k = 0.2500 0.0000 0.2500 (  1839 PWs)   bands (ev):

    -8.0537  -8.0138  -8.0104  -7.9446  -7.9408  -5.4813   3.6373   5.4096
     6.4975

          k = 0.0000 0.5000 0.0000 (  1828 PWs)   bands (ev):

    -8.0846  -7.9973  -7.9973  -7.9540  -7.9353  -5.0295   2.6856   5.0823
     5.0823

          k =-0.1250 0.6250-0.1250 (  1815 PWs)   bands (ev):

    -8.1029  -7.9909  -7.9891  -7.9564  -7.9333  -4.4842   1.5066   4.3552
     4.7513

          k = 0.7500-0.2500 0.7500 (  1809 PWs)   bands (ev):

    -8.1119  -7.9911  -7.9859  -7.9530  -7.9344  -3.9048   0.4976   3.5344
     4.7335

          k = 0.6250-0.1250 0.6250 (  1814 PWs)   bands (ev):

    -8.1093  -7.9942  -7.9883  -7.9468  -7.9392  -3.8118   0.3691   3.1192
     5.0303

          k = 0.5000 0.0000 0.5000 (  1829 PWs)   bands (ev):

    -8.0971  -7.9981  -7.9961  -7.9438  -7.9416  -4.3181   1.1268   3.4050
     5.5539

          k = 0.0000 0.7500 0.0000 (  1796 PWs)   bands (ev):

    -8.1191  -7.9795  -7.9795  -7.9636  -7.9303  -4.0696   0.8609   4.3509
     4.3509

          k = 0.8750-0.1250 0.8750 (  1800 PWs)   bands (ev):

    -8.1256  -7.9787  -7.9757  -7.9629  -7.9303  -3.6132   0.2229   3.6563
     4.2650

          k = 0.7500 0.0000 0.7500 (  1822 PWs)   bands (ev):

    -8.1204  -7.9858  -7.9789  -7.9561  -7.9347  -3.4909   0.1377   2.9088
     4.5142

          k = 0.0000-1.0000 0.0000 (  1772 PWs)   bands (ev):

    -8.1319  -7.9719  -7.9719  -7.9678  -7.9281  -3.4554  -0.0475   4.0943
     4.0943

          k =-0.2500 0.5000 0.0000 (  1833 PWs)   bands (ev):

    -8.0862  -8.0009  -7.9980  -7.9503  -7.9366  -4.8355   2.0914   4.3733
     5.4741

          k = 0.6250-0.3750 0.8750 (  1815 PWs)   bands (ev):

    -8.1024  -7.9973  -7.9913  -7.9488  -7.9368  -4.2043   0.8792   3.7180
     5.0368

          k = 0.5000-0.2500 0.7500 (  1808 PWs)   bands (ev):

    -8.1084  -7.9966  -7.9888  -7.9463  -7.9380  -3.8515   0.2822   3.5439
     4.8343

          k = 0.7500-0.2500 1.0000 (  1807 PWs)   bands (ev):

    -8.1150  -7.9872  -7.9815  -7.9578  -7.9328  -3.9554   0.7237   3.7276
     4.2941

          k = 0.6250-0.1250 0.8750 (  1817 PWs)   bands (ev):

    -8.1175  -7.9898  -7.9790  -7.9540  -7.9358  -3.5586   0.2364   3.1063
     4.1162

          k = 0.5000 0.0000 0.7500 (  1823 PWs)   bands (ev):

    -8.1123  -7.9938  -7.9826  -7.9499  -7.9385  -3.6990   0.4054   2.9628
     4.4588

          k =-0.2500-1.0000 0.0000 (  1798 PWs)   bands (ev):

    -8.1258  -7.9808  -7.9750  -7.9605  -7.9318  -3.4261   0.0387   3.6295
     3.7212

          k =-0.5000-1.0000 0.0000 (  1800 PWs)   bands (ev):

    -8.1188  -7.9905  -7.9763  -7.9532  -7.9372  -3.3962   0.1363   3.2371
     3.4217

     highest occupied level (ev):     6.7783

!    total energy              =    -191.02378152 Ry
     estimated scf accuracy    <          9.0E-09 Ry

     The total energy is the sum of the following terms:
     one-electron contribution =    -111.77820655 Ry
     hartree contribution      =      71.69264539 Ry
     xc contribution           =     -57.91904930 Ry
     ewald contribution        =     -93.01917106 Ry

     convergence has been achieved in   9 iterations

     Writing all to output data dir ./SCRATCH/gallium_arsenide.save/

     init_run     :      1.08s CPU      1.24s WALL (       1 calls)
     electrons    :     10.33s CPU     13.10s WALL (       1 calls)

     Called by init_run:
     wfcinit      :      0.36s CPU      0.37s WALL (       1 calls)
     potinit      :      0.06s CPU      0.10s WALL (       1 calls)
     hinit0       :      0.44s CPU      0.46s WALL (       1 calls)

     Called by electrons:
     c_bands      :      6.80s CPU      6.87s WALL (      10 calls)
     sum_band     :      2.16s CPU      3.54s WALL (      10 calls)
     v_of_rho     :      0.50s CPU      0.52s WALL (      10 calls)
     newd         :      1.02s CPU      2.44s WALL (      10 calls)
     mix_rho      :      0.03s CPU      0.04s WALL (      10 calls)

     Called by c_bands:
     init_us_2    :      0.31s CPU      0.22s WALL (     609 calls)
     init_us_2:cp :      0.31s CPU      0.22s WALL (     609 calls)
     cegterg      :      6.45s CPU      6.48s WALL (     290 calls)

     Called by *egterg:
     cdiaghg      :      0.02s CPU      0.06s WALL (     998 calls)
     h_psi        :      5.75s CPU      5.57s WALL (    1056 calls)
     s_psi        :      0.34s CPU      0.27s WALL (    1056 calls)
     g_psi        :      0.03s CPU      0.02s WALL (     737 calls)

     Called by h_psi:
     h_psi:calbec :      0.53s CPU      0.37s WALL (    1056 calls)
     vloc_psi     :      4.95s CPU      4.90s WALL (    1056 calls)
     add_vuspsi   :      0.27s CPU      0.27s WALL (    1056 calls)

     General routines
     calbec       :      0.67s CPU      0.49s WALL (    1346 calls)
     fft          :      0.25s CPU      0.27s WALL (     129 calls)
     ffts         :      0.02s CPU      0.01s WALL (      20 calls)
     fftw         :      4.78s CPU      4.86s WALL (   17630 calls)
     interpolate  :      0.05s CPU      0.03s WALL (      10 calls)


     PWSCF        :     11.50s CPU     14.45s WALL


   This run was terminated on:  11:14:12  11Jun2024            

=------------------------------------------------------------------------------=
   JOB DONE.
=------------------------------------------------------------------------------=
