
     Program PWSCF v.7.2 starts on 25May2024 at 12:17: 1 

     This program is part of the open-source Quantum ESPRESSO suite
     for quantum simulation of materials; please cite
         "P. Giannozzi et al., J. Phys.:Condens. Matter 21 395502 (2009);
         "P. Giannozzi et al., J. Phys.:Condens. Matter 29 465901 (2017);
         "P. Giannozzi et al., J. Chem. Phys. 152 154105 (2020);
          URL http://www.quantum-espresso.org", 
     in publications or presentations arising from this work. More details at
     http://www.quantum-espresso.org/quote

     Serial version
     8178 MiB available memory on the printing compute node when the environment starts

     Waiting for input...
     Reading input from standard input

     Current dimensions of program PWSCF are:
     Max number of different atomic species (ntypx) = 10
     Max number of k-points (npk) =  40000
     Max angular momentum in pseudopotentials (lmaxx) =  4


     G-vector sticks info
     --------------------
     sticks:   dense  smooth     PW     G-vecs:    dense   smooth      PW
     Sum         967     967    301                20179    20179    3383

     Using Slab Decomposition



     bravais-lattice index     =            2
     lattice parameter (alat)  =      10.8966  a.u.
     unit-cell volume          =     323.4510 (a.u.)^3
     number of atoms/cell      =            2
     number of atomic types    =            2
     number of electrons       =         8.00
     number of Kohn-Sham states=            4
     kinetic-energy cutoff     =      60.0000  Ry
     charge density cutoff     =     240.0000  Ry
     scf convergence threshold =      1.0E-08
     mixing beta               =       0.7000
     number of iterations used =            8  plain     mixing
     Exchange-correlation= SLA  PZ   NOGX NOGC
                           (   1   1   0   0   0   0   0)

     celldm(1)=  10.896563  celldm(2)=   0.000000  celldm(3)=   0.000000
     celldm(4)=   0.000000  celldm(5)=   0.000000  celldm(6)=   0.000000

     crystal axes: (cart. coord. in units of alat)
               a(1) = (  -0.500000   0.000000   0.500000 )  
               a(2) = (   0.000000   0.500000   0.500000 )  
               a(3) = (  -0.500000   0.500000   0.000000 )  

     reciprocal axes: (cart. coord. in units 2 pi/alat)
               b(1) = ( -1.000000 -1.000000  1.000000 )  
               b(2) = (  1.000000  1.000000  1.000000 )  
               b(3) = ( -1.000000  1.000000 -1.000000 )  


     PseudoPot. # 1 for Ga read from file:
     /home/paolo/project_labqsm/pseudopotentials/Ga.pz-bhs.UPF
     MD5 check sum: 09b06f4702dea281feaf053846378b49
     Pseudo is Norm-conserving, Zval =  3.0
     Generated by new atomic code, or converted to UPF format
     Using radial grid of  523 points,  2 beta functions with: 
                l(1) =   0
                l(2) =   1

     PseudoPot. # 2 for As read from file:
     /home/paolo/project_labqsm/pseudopotentials/As.pz-bhs.UPF
     MD5 check sum: d67708448008dff3ec15a9356ed645c7
     Pseudo is Norm-conserving, Zval =  5.0
     Generated by new atomic code, or converted to UPF format
     Using radial grid of  525 points,  2 beta functions with: 
                l(1) =   0
                l(2) =   1

     atomic species   valence    mass     pseudopotential
        Ga             3.00    69.72300     Ga( 1.00)
        As             5.00    74.92200     As( 1.00)

     24 Sym. Ops. (no inversion) found



   Cartesian axes

     site n.     atom                  positions (alat units)
         1           Ga  tau(   1) = (   0.0000000   0.0000000   0.0000000  )
         2           As  tau(   2) = (   0.2500000   0.2500000   0.2500000  )

     number of k points=    29
                       cart. coord. in units 2pi/alat
        k(    1) = (   0.0000000   0.0000000   0.0000000), wk =   0.0039062
        k(    2) = (  -0.1250000   0.1250000  -0.1250000), wk =   0.0312500
        k(    3) = (  -0.2500000   0.2500000  -0.2500000), wk =   0.0312500
        k(    4) = (  -0.3750000   0.3750000  -0.3750000), wk =   0.0312500
        k(    5) = (   0.5000000  -0.5000000   0.5000000), wk =   0.0156250
        k(    6) = (   0.0000000   0.2500000   0.0000000), wk =   0.0234375
        k(    7) = (  -0.1250000   0.3750000  -0.1250000), wk =   0.0937500
        k(    8) = (  -0.2500000   0.5000000  -0.2500000), wk =   0.0937500
        k(    9) = (   0.6250000  -0.3750000   0.6250000), wk =   0.0937500
        k(   10) = (   0.5000000  -0.2500000   0.5000000), wk =   0.0937500
        k(   11) = (   0.3750000  -0.1250000   0.3750000), wk =   0.0937500
        k(   12) = (   0.2500000   0.0000000   0.2500000), wk =   0.0468750
        k(   13) = (   0.0000000   0.5000000   0.0000000), wk =   0.0234375
        k(   14) = (  -0.1250000   0.6250000  -0.1250000), wk =   0.0937500
        k(   15) = (   0.7500000  -0.2500000   0.7500000), wk =   0.0937500
        k(   16) = (   0.6250000  -0.1250000   0.6250000), wk =   0.0937500
        k(   17) = (   0.5000000   0.0000000   0.5000000), wk =   0.0468750
        k(   18) = (   0.0000000   0.7500000   0.0000000), wk =   0.0234375
        k(   19) = (   0.8750000  -0.1250000   0.8750000), wk =   0.0937500
        k(   20) = (   0.7500000   0.0000000   0.7500000), wk =   0.0468750
        k(   21) = (   0.0000000  -1.0000000   0.0000000), wk =   0.0117188
        k(   22) = (  -0.2500000   0.5000000   0.0000000), wk =   0.0937500
        k(   23) = (   0.6250000  -0.3750000   0.8750000), wk =   0.1875000
        k(   24) = (   0.5000000  -0.2500000   0.7500000), wk =   0.0937500
        k(   25) = (   0.7500000  -0.2500000   1.0000000), wk =   0.0937500
        k(   26) = (   0.6250000  -0.1250000   0.8750000), wk =   0.1875000
        k(   27) = (   0.5000000   0.0000000   0.7500000), wk =   0.0937500
        k(   28) = (  -0.2500000  -1.0000000   0.0000000), wk =   0.0468750
        k(   29) = (  -0.5000000  -1.0000000   0.0000000), wk =   0.0234375

     Dense  grid:    20179 G-vectors     FFT dimensions: (  40,  40,  40)

     Estimated max dynamical RAM per process >      19.20 MB

     Initial potential from superposition of free atoms

     starting charge       7.9979, renormalised to       8.0000
     Starting wfcs are    8 randomized atomic wfcs

     total cpu time spent up to now is        0.4 secs

     Self-consistent Calculation

     iteration #  1     ecut=    60.00 Ry     beta= 0.70
     Davidson diagonalization with overlap
     ethr =  1.00E-02,  avg # of iterations =  1.3

     Threshold (ethr) on eigenvalues was too large:
     Diagonalizing with lowered threshold

     Davidson diagonalization with overlap
     ethr =  4.54E-04,  avg # of iterations =  3.2

     total cpu time spent up to now is        1.3 secs

     total energy              =     -17.31027302 Ry
     estimated scf accuracy    <       0.03976426 Ry

     iteration #  2     ecut=    60.00 Ry     beta= 0.70
     Davidson diagonalization with overlap
     ethr =  4.97E-04,  avg # of iterations =  2.0

     total cpu time spent up to now is        1.7 secs

     total energy              =     -17.31670205 Ry
     estimated scf accuracy    <       0.00295813 Ry

     iteration #  3     ecut=    60.00 Ry     beta= 0.70
     Davidson diagonalization with overlap
     ethr =  3.70E-05,  avg # of iterations =  2.7

     total cpu time spent up to now is        2.2 secs

     total energy              =     -17.31727627 Ry
     estimated scf accuracy    <       0.00045727 Ry

     iteration #  4     ecut=    60.00 Ry     beta= 0.70
     Davidson diagonalization with overlap
     ethr =  5.72E-06,  avg # of iterations =  3.7

     total cpu time spent up to now is        2.8 secs

     total energy              =     -17.31762800 Ry
     estimated scf accuracy    <       0.00020964 Ry

     iteration #  5     ecut=    60.00 Ry     beta= 0.70
     Davidson diagonalization with overlap
     ethr =  2.62E-06,  avg # of iterations =  1.6

     total cpu time spent up to now is        3.2 secs

     total energy              =     -17.31751937 Ry
     estimated scf accuracy    <       0.00028693 Ry

     iteration #  6     ecut=    60.00 Ry     beta= 0.70
     Davidson diagonalization with overlap
     ethr =  2.62E-06,  avg # of iterations =  1.8

     total cpu time spent up to now is        3.6 secs

     total energy              =     -17.31752466 Ry
     estimated scf accuracy    <       0.00005909 Ry

     iteration #  7     ecut=    60.00 Ry     beta= 0.70
     Davidson diagonalization with overlap
     ethr =  7.39E-07,  avg # of iterations =  2.9

     total cpu time spent up to now is        4.0 secs

     total energy              =     -17.31753043 Ry
     estimated scf accuracy    <       0.00002014 Ry

     iteration #  8     ecut=    60.00 Ry     beta= 0.70
     Davidson diagonalization with overlap
     ethr =  2.52E-07,  avg # of iterations =  2.8

     total cpu time spent up to now is        4.5 secs

     total energy              =     -17.31753468 Ry
     estimated scf accuracy    <       0.00000591 Ry

     iteration #  9     ecut=    60.00 Ry     beta= 0.70
     Davidson diagonalization with overlap
     ethr =  7.39E-08,  avg # of iterations =  3.6

     total cpu time spent up to now is        5.0 secs

     total energy              =     -17.31753612 Ry
     estimated scf accuracy    <       0.00000286 Ry

     iteration # 10     ecut=    60.00 Ry     beta= 0.70
     Davidson diagonalization with overlap
     ethr =  3.57E-08,  avg # of iterations =  1.5

     total cpu time spent up to now is        5.4 secs

     total energy              =     -17.31753644 Ry
     estimated scf accuracy    <       0.00000256 Ry

     iteration # 11     ecut=    60.00 Ry     beta= 0.70
     Davidson diagonalization with overlap
     ethr =  3.20E-08,  avg # of iterations =  1.1

     total cpu time spent up to now is        5.7 secs

     total energy              =     -17.31753720 Ry
     estimated scf accuracy    <       0.00000279 Ry

     iteration # 12     ecut=    60.00 Ry     beta= 0.70
     Davidson diagonalization with overlap
     ethr =  3.20E-08,  avg # of iterations =  1.0

     total cpu time spent up to now is        6.1 secs

     total energy              =     -17.31753727 Ry
     estimated scf accuracy    <       0.00000441 Ry

     iteration # 13     ecut=    60.00 Ry     beta= 0.70
     Davidson diagonalization with overlap
     ethr =  3.20E-08,  avg # of iterations =  1.0

     total cpu time spent up to now is        6.4 secs

     total energy              =     -17.31753664 Ry
     estimated scf accuracy    <       0.00000445 Ry

     iteration # 14     ecut=    60.00 Ry     beta= 0.70
     Davidson diagonalization with overlap
     ethr =  3.20E-08,  avg # of iterations =  1.0

     total cpu time spent up to now is        6.8 secs

     total energy              =     -17.31753583 Ry
     estimated scf accuracy    <       0.00000314 Ry

     iteration # 15     ecut=    60.00 Ry     beta= 0.70
     Davidson diagonalization with overlap
     ethr =  3.20E-08,  avg # of iterations =  1.1

     total cpu time spent up to now is        7.1 secs

     total energy              =     -17.31753601 Ry
     estimated scf accuracy    <       0.00000126 Ry

     iteration # 16     ecut=    60.00 Ry     beta= 0.70
     Davidson diagonalization with overlap
     ethr =  1.58E-08,  avg # of iterations =  1.0

     total cpu time spent up to now is        7.5 secs

     total energy              =     -17.31753708 Ry
     estimated scf accuracy    <       0.00000135 Ry

     iteration # 17     ecut=    60.00 Ry     beta= 0.70
     Davidson diagonalization with overlap
     ethr =  1.58E-08,  avg # of iterations =  1.9

     total cpu time spent up to now is        7.9 secs

     total energy              =     -17.31753483 Ry
     estimated scf accuracy    <       0.00000381 Ry

     iteration # 18     ecut=    60.00 Ry     beta= 0.70
     Davidson diagonalization with overlap
     ethr =  1.58E-08,  avg # of iterations =  3.0

     total cpu time spent up to now is        8.5 secs

     End of self-consistent calculation

          k = 0.0000 0.0000 0.0000 (  2637 PWs)   bands (ev):

    -8.0565   4.0169   4.0169   4.0169

          k =-0.1250 0.1250-0.1250 (  2559 PWs)   bands (ev):

    -7.9147   2.0581   3.8163   3.8163

          k =-0.2500 0.2500-0.2500 (  2548 PWs)   bands (ev):

    -7.5166   0.0113   3.4337   3.4337

          k =-0.3750 0.3750-0.3750 (  2542 PWs)   bands (ev):

    -6.9891  -1.5770   3.1355   3.1355

          k = 0.5000-0.5000 0.5000 (  2512 PWs)   bands (ev):

    -6.6991  -2.2308   3.0281   3.0281

          k = 0.0000 0.2500 0.0000 (  2557 PWs)   bands (ev):

    -7.8669   1.9835   3.4472   3.4472

          k =-0.1250 0.3750-0.1250 (  2551 PWs)   bands (ev):

    -7.5512   0.4481   2.9764   3.0148

          k =-0.2500 0.5000-0.2500 (  2550 PWs)   bands (ev):

    -7.0510  -1.1473   2.4137   2.7571

          k = 0.6250-0.3750 0.6250 (  2533 PWs)   bands (ev):

    -6.6369  -2.1030   2.0115   2.7516

          k = 0.5000-0.2500 0.5000 (  2527 PWs)   bands (ev):

    -6.7393  -1.8853   1.8904   2.9909

          k = 0.3750-0.1250 0.3750 (  2540 PWs)   bands (ev):

    -7.2313  -0.6544   2.1189   3.3984

          k = 0.2500 0.0000 0.2500 (  2573 PWs)   bands (ev):

    -7.6858   0.9176   2.8139   3.7818

          k = 0.0000 0.5000 0.0000 (  2557 PWs)   bands (ev):

    -7.3262  -0.0248   2.5269   2.5269

          k =-0.1250 0.6250-0.1250 (  2542 PWs)   bands (ev):

    -6.8981  -1.0909   1.8502   2.2311

          k = 0.7500-0.2500 0.7500 (  2530 PWs)   bands (ev):

    -6.4612  -1.9524   1.0709   2.2174

          k = 0.6250-0.1250 0.6250 (  2537 PWs)   bands (ev):

    -6.3970  -2.0505   0.6833   2.4859

          k = 0.5000 0.0000 0.5000 (  2529 PWs)   bands (ev):

    -6.7777  -1.4042   0.9602   2.9551

          k = 0.0000 0.7500 0.0000 (  2518 PWs)   bands (ev):

    -6.5731  -1.6762   1.8706   1.8706

          k = 0.8750-0.1250 0.8750 (  2528 PWs)   bands (ev):

    -6.2349  -2.2090   1.2200   1.7944

          k = 0.7500 0.0000 0.7500 (  2554 PWs)   bands (ev):

    -6.1546  -2.2600   0.5142   2.0201

          k = 0.0000-1.0000 0.0000 (  2498 PWs)   bands (ev):

    -6.1188  -2.4350   1.6404   1.6404

          k =-0.2500 0.5000 0.0000 (  2546 PWs)   bands (ev):

    -7.1764  -0.5449   1.8661   2.8740

          k = 0.6250-0.3750 0.8750 (  2536 PWs)   bands (ev):

    -6.6897  -1.6167   1.2386   2.4849

          k = 0.5000-0.2500 0.7500 (  2526 PWs)   bands (ev):

    -6.4292  -2.1167   1.0618   2.3053

          k = 0.7500-0.2500 1.0000 (  2522 PWs)   bands (ev):

    -6.4920  -1.7817   1.2748   1.8118

          k = 0.6250-0.1250 0.8750 (  2537 PWs)   bands (ev):

    -6.2038  -2.1767   0.6888   1.6482

          k = 0.5000 0.0000 0.7500 (  2537 PWs)   bands (ev):

    -6.3088  -2.0322   0.5539   1.9591

          k =-0.2500-1.0000 0.0000 (  2530 PWs)   bands (ev):

    -6.1027  -2.3511   1.1773   1.3002

          k =-0.5000-1.0000 0.0000 (  2520 PWs)   bands (ev):

    -6.0863  -2.2564   0.7903   1.0284

     highest occupied level (ev):     4.0169

!    total energy              =     -17.31753562 Ry
     estimated scf accuracy    <          9.1E-09 Ry

     The total energy is the sum of the following terms:
     one-electron contribution =       2.27293241 Ry
     hartree contribution      =       1.63670490 Ry
     xc contribution           =      -4.71339726 Ry
     ewald contribution        =     -16.51377567 Ry

     convergence has been achieved in  18 iterations

     Writing all to output data dir ./SCRATCH/gallium_arsenide.save/

     init_run     :      0.33s CPU      0.36s WALL (       1 calls)
     electrons    :      7.92s CPU      8.08s WALL (       1 calls)

     Called by init_run:
     wfcinit      :      0.30s CPU      0.30s WALL (       1 calls)
     potinit      :      0.00s CPU      0.01s WALL (       1 calls)
     hinit0       :      0.02s CPU      0.03s WALL (       1 calls)

     Called by electrons:
     c_bands      :      6.50s CPU      6.65s WALL (      19 calls)
     sum_band     :      1.27s CPU      1.31s WALL (      19 calls)
     v_of_rho     :      0.09s CPU      0.06s WALL (      19 calls)
     mix_rho      :      0.03s CPU      0.06s WALL (      19 calls)

     Called by c_bands:
     init_us_2    :      0.38s CPU      0.28s WALL (    1131 calls)
     init_us_2:cp :      0.38s CPU      0.27s WALL (    1131 calls)
     cegterg      :      6.23s CPU      6.37s WALL (     551 calls)

     Called by *egterg:
     cdiaghg      :      0.02s CPU      0.03s WALL (    1625 calls)
     h_psi        :      6.22s CPU      6.16s WALL (    1683 calls)
     g_psi        :      0.02s CPU      0.03s WALL (    1103 calls)

     Called by h_psi:
     h_psi:calbec :      0.06s CPU      0.13s WALL (    1683 calls)
     vloc_psi     :      6.02s CPU      5.89s WALL (    1683 calls)
     add_vuspsi   :      0.09s CPU      0.10s WALL (    1683 calls)

     General routines
     calbec       :      0.06s CPU      0.13s WALL (    1683 calls)
     fft          :      0.02s CPU      0.04s WALL (      57 calls)
     ffts         :      0.03s CPU      0.02s WALL (      19 calls)
     fftw         :      6.31s CPU      6.38s WALL (   13754 calls)


     PWSCF        :      8.27s CPU      8.47s WALL


   This run was terminated on:  12:17:10  25May2024            

=------------------------------------------------------------------------------=
   JOB DONE.
=------------------------------------------------------------------------------=
