
     Program PWSCF v.7.2 starts on 25May2024 at 12:17:10 

     This program is part of the open-source Quantum ESPRESSO suite
     for quantum simulation of materials; please cite
         "P. Giannozzi et al., J. Phys.:Condens. Matter 21 395502 (2009);
         "P. Giannozzi et al., J. Phys.:Condens. Matter 29 465901 (2017);
         "P. Giannozzi et al., J. Chem. Phys. 152 154105 (2020);
          URL http://www.quantum-espresso.org", 
     in publications or presentations arising from this work. More details at
     http://www.quantum-espresso.org/quote

     Serial version
     8166 MiB available memory on the printing compute node when the environment starts

     Waiting for input...
     Reading input from standard input

     Current dimensions of program PWSCF are:
     Max number of different atomic species (ntypx) = 10
     Max number of k-points (npk) =  40000
     Max angular momentum in pseudopotentials (lmaxx) =  4


     G-vector sticks info
     --------------------
     sticks:   dense  smooth     PW     G-vecs:    dense   smooth      PW
     Sum        1147    1147    349                25605    25605    4111

     Using Slab Decomposition



     bravais-lattice index     =            2
     lattice parameter (alat)  =      10.8966  a.u.
     unit-cell volume          =     323.4510 (a.u.)^3
     number of atoms/cell      =            2
     number of atomic types    =            2
     number of electrons       =         8.00
     number of Kohn-Sham states=            4
     kinetic-energy cutoff     =      70.0000  Ry
     charge density cutoff     =     280.0000  Ry
     scf convergence threshold =      1.0E-08
     mixing beta               =       0.7000
     number of iterations used =            8  plain     mixing
     Exchange-correlation= SLA  PZ   NOGX NOGC
                           (   1   1   0   0   0   0   0)

     celldm(1)=  10.896563  celldm(2)=   0.000000  celldm(3)=   0.000000
     celldm(4)=   0.000000  celldm(5)=   0.000000  celldm(6)=   0.000000

     crystal axes: (cart. coord. in units of alat)
               a(1) = (  -0.500000   0.000000   0.500000 )  
               a(2) = (   0.000000   0.500000   0.500000 )  
               a(3) = (  -0.500000   0.500000   0.000000 )  

     reciprocal axes: (cart. coord. in units 2 pi/alat)
               b(1) = ( -1.000000 -1.000000  1.000000 )  
               b(2) = (  1.000000  1.000000  1.000000 )  
               b(3) = ( -1.000000  1.000000 -1.000000 )  


     PseudoPot. # 1 for Ga read from file:
     /home/paolo/project_labqsm/pseudopotentials/Ga.pz-bhs.UPF
     MD5 check sum: 09b06f4702dea281feaf053846378b49
     Pseudo is Norm-conserving, Zval =  3.0
     Generated by new atomic code, or converted to UPF format
     Using radial grid of  523 points,  2 beta functions with: 
                l(1) =   0
                l(2) =   1

     PseudoPot. # 2 for As read from file:
     /home/paolo/project_labqsm/pseudopotentials/As.pz-bhs.UPF
     MD5 check sum: d67708448008dff3ec15a9356ed645c7
     Pseudo is Norm-conserving, Zval =  5.0
     Generated by new atomic code, or converted to UPF format
     Using radial grid of  525 points,  2 beta functions with: 
                l(1) =   0
                l(2) =   1

     atomic species   valence    mass     pseudopotential
        Ga             3.00    69.72300     Ga( 1.00)
        As             5.00    74.92200     As( 1.00)

     24 Sym. Ops. (no inversion) found



   Cartesian axes

     site n.     atom                  positions (alat units)
         1           Ga  tau(   1) = (   0.0000000   0.0000000   0.0000000  )
         2           As  tau(   2) = (   0.2500000   0.2500000   0.2500000  )

     number of k points=    29
                       cart. coord. in units 2pi/alat
        k(    1) = (   0.0000000   0.0000000   0.0000000), wk =   0.0039062
        k(    2) = (  -0.1250000   0.1250000  -0.1250000), wk =   0.0312500
        k(    3) = (  -0.2500000   0.2500000  -0.2500000), wk =   0.0312500
        k(    4) = (  -0.3750000   0.3750000  -0.3750000), wk =   0.0312500
        k(    5) = (   0.5000000  -0.5000000   0.5000000), wk =   0.0156250
        k(    6) = (   0.0000000   0.2500000   0.0000000), wk =   0.0234375
        k(    7) = (  -0.1250000   0.3750000  -0.1250000), wk =   0.0937500
        k(    8) = (  -0.2500000   0.5000000  -0.2500000), wk =   0.0937500
        k(    9) = (   0.6250000  -0.3750000   0.6250000), wk =   0.0937500
        k(   10) = (   0.5000000  -0.2500000   0.5000000), wk =   0.0937500
        k(   11) = (   0.3750000  -0.1250000   0.3750000), wk =   0.0937500
        k(   12) = (   0.2500000   0.0000000   0.2500000), wk =   0.0468750
        k(   13) = (   0.0000000   0.5000000   0.0000000), wk =   0.0234375
        k(   14) = (  -0.1250000   0.6250000  -0.1250000), wk =   0.0937500
        k(   15) = (   0.7500000  -0.2500000   0.7500000), wk =   0.0937500
        k(   16) = (   0.6250000  -0.1250000   0.6250000), wk =   0.0937500
        k(   17) = (   0.5000000   0.0000000   0.5000000), wk =   0.0468750
        k(   18) = (   0.0000000   0.7500000   0.0000000), wk =   0.0234375
        k(   19) = (   0.8750000  -0.1250000   0.8750000), wk =   0.0937500
        k(   20) = (   0.7500000   0.0000000   0.7500000), wk =   0.0468750
        k(   21) = (   0.0000000  -1.0000000   0.0000000), wk =   0.0117188
        k(   22) = (  -0.2500000   0.5000000   0.0000000), wk =   0.0937500
        k(   23) = (   0.6250000  -0.3750000   0.8750000), wk =   0.1875000
        k(   24) = (   0.5000000  -0.2500000   0.7500000), wk =   0.0937500
        k(   25) = (   0.7500000  -0.2500000   1.0000000), wk =   0.0937500
        k(   26) = (   0.6250000  -0.1250000   0.8750000), wk =   0.1875000
        k(   27) = (   0.5000000   0.0000000   0.7500000), wk =   0.0937500
        k(   28) = (  -0.2500000  -1.0000000   0.0000000), wk =   0.0468750
        k(   29) = (  -0.5000000  -1.0000000   0.0000000), wk =   0.0234375

     Dense  grid:    25605 G-vectors     FFT dimensions: (  45,  45,  45)

     Estimated max dynamical RAM per process >      24.95 MB

     Initial potential from superposition of free atoms

     starting charge       7.9979, renormalised to       8.0000
     Starting wfcs are    8 randomized atomic wfcs

     total cpu time spent up to now is        0.5 secs

     Self-consistent Calculation

     iteration #  1     ecut=    70.00 Ry     beta= 0.70
     Davidson diagonalization with overlap
     ethr =  1.00E-02,  avg # of iterations =  1.3

     Threshold (ethr) on eigenvalues was too large:
     Diagonalizing with lowered threshold

     Davidson diagonalization with overlap
     ethr =  4.50E-04,  avg # of iterations =  3.1

     total cpu time spent up to now is        1.9 secs

     total energy              =     -17.31004650 Ry
     estimated scf accuracy    <       0.03952480 Ry

     iteration #  2     ecut=    70.00 Ry     beta= 0.70
     Davidson diagonalization with overlap
     ethr =  4.94E-04,  avg # of iterations =  2.0

     total cpu time spent up to now is        2.5 secs

     total energy              =     -17.31669950 Ry
     estimated scf accuracy    <       0.00296202 Ry

     iteration #  3     ecut=    70.00 Ry     beta= 0.70
     Davidson diagonalization with overlap
     ethr =  3.70E-05,  avg # of iterations =  3.1

     total cpu time spent up to now is        3.2 secs

     total energy              =     -17.31732280 Ry
     estimated scf accuracy    <       0.00049106 Ry

     iteration #  4     ecut=    70.00 Ry     beta= 0.70
     Davidson diagonalization with overlap
     ethr =  6.14E-06,  avg # of iterations =  3.4

     total cpu time spent up to now is        4.1 secs

     total energy              =     -17.31769638 Ry
     estimated scf accuracy    <       0.00023349 Ry

     iteration #  5     ecut=    70.00 Ry     beta= 0.70
     Davidson diagonalization with overlap
     ethr =  2.92E-06,  avg # of iterations =  1.7

     total cpu time spent up to now is        4.6 secs

     total energy              =     -17.31759280 Ry
     estimated scf accuracy    <       0.00035019 Ry

     iteration #  6     ecut=    70.00 Ry     beta= 0.70
     Davidson diagonalization with overlap
     ethr =  2.92E-06,  avg # of iterations =  1.2

     total cpu time spent up to now is        5.2 secs

     total energy              =     -17.31755447 Ry
     estimated scf accuracy    <       0.00012884 Ry

     iteration #  7     ecut=    70.00 Ry     beta= 0.70
     Davidson diagonalization with overlap
     ethr =  1.61E-06,  avg # of iterations =  2.0

     total cpu time spent up to now is        5.8 secs

     total energy              =     -17.31757055 Ry
     estimated scf accuracy    <       0.00002119 Ry

     iteration #  8     ecut=    70.00 Ry     beta= 0.70
     Davidson diagonalization with overlap
     ethr =  2.65E-07,  avg # of iterations =  3.5

     total cpu time spent up to now is        6.5 secs

     total energy              =     -17.31757610 Ry
     estimated scf accuracy    <       0.00000948 Ry

     iteration #  9     ecut=    70.00 Ry     beta= 0.70
     Davidson diagonalization with overlap
     ethr =  1.18E-07,  avg # of iterations =  1.9

     total cpu time spent up to now is        7.1 secs

     total energy              =     -17.31757503 Ry
     estimated scf accuracy    <       0.00000658 Ry

     iteration # 10     ecut=    70.00 Ry     beta= 0.70
     Davidson diagonalization with overlap
     ethr =  8.23E-08,  avg # of iterations =  2.6

     total cpu time spent up to now is        7.7 secs

     total energy              =     -17.31757508 Ry
     estimated scf accuracy    <       0.00000193 Ry

     iteration # 11     ecut=    70.00 Ry     beta= 0.70
     Davidson diagonalization with overlap
     ethr =  2.42E-08,  avg # of iterations =  4.1

     total cpu time spent up to now is        8.5 secs

     total energy              =     -17.31757579 Ry
     estimated scf accuracy    <       0.00000007 Ry

     iteration # 12     ecut=    70.00 Ry     beta= 0.70
     Davidson diagonalization with overlap
     c_bands:  1 eigenvalues not converged
     ethr =  8.74E-10,  avg # of iterations =  7.4

     total cpu time spent up to now is        9.8 secs

     total energy              =     -17.31757597 Ry
     estimated scf accuracy    <       0.00000001 Ry

     iteration # 13     ecut=    70.00 Ry     beta= 0.70
     Davidson diagonalization with overlap
     c_bands:  1 eigenvalues not converged
     ethr =  1.65E-10,  avg # of iterations =  3.2

     total cpu time spent up to now is       10.5 secs

     total energy              =     -17.31757598 Ry
     estimated scf accuracy    <       0.00000002 Ry

     iteration # 14     ecut=    70.00 Ry     beta= 0.70
     Davidson diagonalization with overlap
     ethr =  1.65E-10,  avg # of iterations =  2.3

     total cpu time spent up to now is       11.1 secs

     total energy              =     -17.31757598 Ry
     estimated scf accuracy    <       0.00000004 Ry

     iteration # 15     ecut=    70.00 Ry     beta= 0.70
     Davidson diagonalization with overlap
     ethr =  1.65E-10,  avg # of iterations =  1.0

     total cpu time spent up to now is       11.6 secs

     total energy              =     -17.31757596 Ry
     estimated scf accuracy    <       0.00000003 Ry

     iteration # 16     ecut=    70.00 Ry     beta= 0.70
     Davidson diagonalization with overlap
     ethr =  1.65E-10,  avg # of iterations =  2.0

     total cpu time spent up to now is       12.3 secs

     End of self-consistent calculation

          k = 0.0000 0.0000 0.0000 (  3143 PWs)   bands (ev):

    -8.0570   4.0164   4.0164   4.0164

          k =-0.1250 0.1250-0.1250 (  3197 PWs)   bands (ev):

    -7.9152   2.0578   3.8159   3.8159

          k =-0.2500 0.2500-0.2500 (  3203 PWs)   bands (ev):

    -7.5172   0.0112   3.4334   3.4334

          k =-0.3750 0.3750-0.3750 (  3200 PWs)   bands (ev):

    -6.9898  -1.5770   3.1352   3.1352

          k = 0.5000-0.5000 0.5000 (  3178 PWs)   bands (ev):

    -6.6999  -2.2307   3.0278   3.0278

          k = 0.0000 0.2500 0.0000 (  3203 PWs)   bands (ev):

    -7.8674   1.9833   3.4469   3.4469

          k =-0.1250 0.3750-0.1250 (  3211 PWs)   bands (ev):

    -7.5518   0.4479   2.9762   3.0144

          k =-0.2500 0.5000-0.2500 (  3223 PWs)   bands (ev):

    -7.0517  -1.1474   2.4135   2.7568

          k = 0.6250-0.3750 0.6250 (  3195 PWs)   bands (ev):

    -6.6377  -2.1030   2.0112   2.7513

          k = 0.5000-0.2500 0.5000 (  3188 PWs)   bands (ev):

    -6.7401  -1.8853   1.8902   2.9906

          k = 0.3750-0.1250 0.3750 (  3199 PWs)   bands (ev):

    -7.2320  -0.6545   2.1187   3.3981

          k = 0.2500 0.0000 0.2500 (  3221 PWs)   bands (ev):

    -7.6864   0.9174   2.8136   3.7814

          k = 0.0000 0.5000 0.0000 (  3207 PWs)   bands (ev):

    -7.3268  -0.0250   2.5266   2.5266

          k =-0.1250 0.6250-0.1250 (  3201 PWs)   bands (ev):

    -6.8988  -1.0909   1.8500   2.2309

          k = 0.7500-0.2500 0.7500 (  3191 PWs)   bands (ev):

    -6.4620  -1.9523   1.0707   2.2172

          k = 0.6250-0.1250 0.6250 (  3189 PWs)   bands (ev):

    -6.3979  -2.0504   0.6831   2.4856

          k = 0.5000 0.0000 0.5000 (  3190 PWs)   bands (ev):

    -6.7784  -1.4042   0.9600   2.9548

          k = 0.0000 0.7500 0.0000 (  3194 PWs)   bands (ev):

    -6.5739  -1.6761   1.8704   1.8704

          k = 0.8750-0.1250 0.8750 (  3203 PWs)   bands (ev):

    -6.2358  -2.2088   1.2198   1.7941

          k = 0.7500 0.0000 0.7500 (  3200 PWs)   bands (ev):

    -6.1555  -2.2598   0.5140   2.0199

          k = 0.0000-1.0000 0.0000 (  3250 PWs)   bands (ev):

    -6.1198  -2.4347   1.6401   1.6401

          k =-0.2500 0.5000 0.0000 (  3203 PWs)   bands (ev):

    -7.1771  -0.5450   1.8658   2.8737

          k = 0.6250-0.3750 0.8750 (  3188 PWs)   bands (ev):

    -6.6905  -1.6167   1.2384   2.4847

          k = 0.5000-0.2500 0.7500 (  3186 PWs)   bands (ev):

    -6.4300  -2.1166   1.0616   2.3051

          k = 0.7500-0.2500 1.0000 (  3187 PWs)   bands (ev):

    -6.4928  -1.7815   1.2746   1.8116

          k = 0.6250-0.1250 0.8750 (  3196 PWs)   bands (ev):

    -6.2047  -2.1764   0.6886   1.6480

          k = 0.5000 0.0000 0.7500 (  3205 PWs)   bands (ev):

    -6.3097  -2.0320   0.5537   1.9589

          k =-0.2500-1.0000 0.0000 (  3192 PWs)   bands (ev):

    -6.1036  -2.3508   1.1771   1.3000

          k =-0.5000-1.0000 0.0000 (  3188 PWs)   bands (ev):

    -6.0873  -2.2561   0.7901   1.0282

     highest occupied level (ev):     4.0164

!    total energy              =     -17.31757596 Ry
     estimated scf accuracy    <          4.8E-09 Ry

     The total energy is the sum of the following terms:
     one-electron contribution =       2.27302203 Ry
     hartree contribution      =       1.63652593 Ry
     xc contribution           =      -4.71334826 Ry
     ewald contribution        =     -16.51377566 Ry

     convergence has been achieved in  16 iterations

     Writing all to output data dir ./SCRATCH/gallium_arsenide.save/

     init_run     :      0.50s CPU      0.52s WALL (       1 calls)
     electrons    :     11.61s CPU     11.80s WALL (       1 calls)

     Called by init_run:
     wfcinit      :      0.44s CPU      0.44s WALL (       1 calls)
     potinit      :      0.02s CPU      0.02s WALL (       1 calls)
     hinit0       :      0.03s CPU      0.04s WALL (       1 calls)

     Called by electrons:
     c_bands      :      9.78s CPU      9.94s WALL (      17 calls)
     sum_band     :      1.70s CPU      1.72s WALL (      17 calls)
     v_of_rho     :      0.03s CPU      0.07s WALL (      17 calls)
     mix_rho      :      0.09s CPU      0.06s WALL (      17 calls)

     Called by c_bands:
     init_us_2    :      0.23s CPU      0.31s WALL (    1015 calls)
     init_us_2:cp :      0.23s CPU      0.31s WALL (    1015 calls)
     cegterg      :      9.55s CPU      9.64s WALL (     493 calls)

     Called by *egterg:
     cdiaghg      :      0.03s CPU      0.03s WALL (    1795 calls)
     h_psi        :      9.25s CPU      9.40s WALL (    1853 calls)
     g_psi        :      0.03s CPU      0.04s WALL (    1331 calls)

     Called by h_psi:
     h_psi:calbec :      0.23s CPU      0.17s WALL (    1853 calls)
     vloc_psi     :      8.91s CPU      9.06s WALL (    1853 calls)
     add_vuspsi   :      0.11s CPU      0.12s WALL (    1853 calls)

     General routines
     calbec       :      0.20s CPU      0.16s WALL (    1853 calls)
     fft          :      0.05s CPU      0.05s WALL (      51 calls)
     ffts         :      0.00s CPU      0.02s WALL (      17 calls)
     fftw         :      9.78s CPU      9.68s WALL (   13744 calls)


     PWSCF        :     12.14s CPU     12.35s WALL


   This run was terminated on:  12:17:22  25May2024            

=------------------------------------------------------------------------------=
   JOB DONE.
=------------------------------------------------------------------------------=
