
     Program PWSCF v.7.2 starts on 11Jun2024 at 11:21: 1 

     This program is part of the open-source Quantum ESPRESSO suite
     for quantum simulation of materials; please cite
         "P. Giannozzi et al., J. Phys.:Condens. Matter 21 395502 (2009);
         "P. Giannozzi et al., J. Phys.:Condens. Matter 29 465901 (2017);
         "P. Giannozzi et al., J. Chem. Phys. 152 154105 (2020);
          URL http://www.quantum-espresso.org", 
     in publications or presentations arising from this work. More details at
     http://www.quantum-espresso.org/quote

     Serial version
     8786 MiB available memory on the printing compute node when the environment starts

     Waiting for input...
     Reading input from standard input

     Current dimensions of program PWSCF are:
     Max number of different atomic species (ntypx) = 10
     Max number of k-points (npk) =  40000
     Max angular momentum in pseudopotentials (lmaxx) =  4
     file Ga.pbe-dn-rrkjus_psl.0.2.UPF: wavefunction(s)  4S 3D renormalized


     G-vector sticks info
     --------------------
     sticks:   dense  smooth     PW     G-vecs:    dense   smooth      PW
     Sum        1237     499    163                28475     7239    1363

     Using Slab Decomposition



     bravais-lattice index     =            2
     lattice parameter (alat)  =      10.8966  a.u.
     unit-cell volume          =     323.4510 (a.u.)^3
     number of atoms/cell      =            2
     number of atomic types    =            2
     number of electrons       =        18.00
     number of Kohn-Sham states=            9
     kinetic-energy cutoff     =      30.0000  Ry
     charge density cutoff     =     300.0000  Ry
     scf convergence threshold =      1.0E-08
     mixing beta               =       0.7000
     number of iterations used =            8  plain     mixing
     Exchange-correlation= PBE
                           (   1   4   3   4   0   0   0)

     celldm(1)=  10.896563  celldm(2)=   0.000000  celldm(3)=   0.000000
     celldm(4)=   0.000000  celldm(5)=   0.000000  celldm(6)=   0.000000

     crystal axes: (cart. coord. in units of alat)
               a(1) = (  -0.500000   0.000000   0.500000 )  
               a(2) = (   0.000000   0.500000   0.500000 )  
               a(3) = (  -0.500000   0.500000   0.000000 )  

     reciprocal axes: (cart. coord. in units 2 pi/alat)
               b(1) = ( -1.000000 -1.000000  1.000000 )  
               b(2) = (  1.000000  1.000000  1.000000 )  
               b(3) = ( -1.000000  1.000000 -1.000000 )  


     PseudoPot. # 1 for Ga read from file:
     /home/paolo/project_labqsm/pseudopotentials/Ga.pbe-dn-rrkjus_psl.0.2.UPF
     MD5 check sum: ffdfce4fe0c152725d7fa40f12f9e9e5
     Pseudo is Ultrasoft + core correction, Zval = 13.0
     Generated using "atomic" code by A. Dal Corso  v.5.0.2 svn rev. 9415
     Using radial grid of 1205 points,  6 beta functions with: 
                l(1) =   0
                l(2) =   0
                l(3) =   1
                l(4) =   1
                l(5) =   2
                l(6) =   2
     Q(r) pseudized with 0 coefficients 


     PseudoPot. # 2 for As read from file:
     /home/paolo/project_labqsm/pseudopotentials/As.pbe-n-rrkjus_psl.0.2.UPF
     MD5 check sum: f98050c7212d27f7cb33035312670de9
     Pseudo is Ultrasoft + core correction, Zval =  5.0
     Generated using "atomic" code by A. Dal Corso  v.5.0.2 svn rev. 9415
     Using radial grid of 1209 points,  4 beta functions with: 
                l(1) =   0
                l(2) =   0
                l(3) =   1
                l(4) =   1
     Q(r) pseudized with 0 coefficients 


     atomic species   valence    mass     pseudopotential
        Ga            13.00    69.72300     Ga( 1.00)
        As             5.00    74.92200     As( 1.00)

     24 Sym. Ops. (no inversion) found



   Cartesian axes

     site n.     atom                  positions (alat units)
         1           Ga  tau(   1) = (   0.0000000   0.0000000   0.0000000  )
         2           As  tau(   2) = (   0.2500000   0.2500000   0.2500000  )

     number of k points=    29
                       cart. coord. in units 2pi/alat
        k(    1) = (   0.0000000   0.0000000   0.0000000), wk =   0.0039062
        k(    2) = (  -0.1250000   0.1250000  -0.1250000), wk =   0.0312500
        k(    3) = (  -0.2500000   0.2500000  -0.2500000), wk =   0.0312500
        k(    4) = (  -0.3750000   0.3750000  -0.3750000), wk =   0.0312500
        k(    5) = (   0.5000000  -0.5000000   0.5000000), wk =   0.0156250
        k(    6) = (   0.0000000   0.2500000   0.0000000), wk =   0.0234375
        k(    7) = (  -0.1250000   0.3750000  -0.1250000), wk =   0.0937500
        k(    8) = (  -0.2500000   0.5000000  -0.2500000), wk =   0.0937500
        k(    9) = (   0.6250000  -0.3750000   0.6250000), wk =   0.0937500
        k(   10) = (   0.5000000  -0.2500000   0.5000000), wk =   0.0937500
        k(   11) = (   0.3750000  -0.1250000   0.3750000), wk =   0.0937500
        k(   12) = (   0.2500000   0.0000000   0.2500000), wk =   0.0468750
        k(   13) = (   0.0000000   0.5000000   0.0000000), wk =   0.0234375
        k(   14) = (  -0.1250000   0.6250000  -0.1250000), wk =   0.0937500
        k(   15) = (   0.7500000  -0.2500000   0.7500000), wk =   0.0937500
        k(   16) = (   0.6250000  -0.1250000   0.6250000), wk =   0.0937500
        k(   17) = (   0.5000000   0.0000000   0.5000000), wk =   0.0468750
        k(   18) = (   0.0000000   0.7500000   0.0000000), wk =   0.0234375
        k(   19) = (   0.8750000  -0.1250000   0.8750000), wk =   0.0937500
        k(   20) = (   0.7500000   0.0000000   0.7500000), wk =   0.0468750
        k(   21) = (   0.0000000  -1.0000000   0.0000000), wk =   0.0117188
        k(   22) = (  -0.2500000   0.5000000   0.0000000), wk =   0.0937500
        k(   23) = (   0.6250000  -0.3750000   0.8750000), wk =   0.1875000
        k(   24) = (   0.5000000  -0.2500000   0.7500000), wk =   0.0937500
        k(   25) = (   0.7500000  -0.2500000   1.0000000), wk =   0.0937500
        k(   26) = (   0.6250000  -0.1250000   0.8750000), wk =   0.1875000
        k(   27) = (   0.5000000   0.0000000   0.7500000), wk =   0.0937500
        k(   28) = (  -0.2500000  -1.0000000   0.0000000), wk =   0.0468750
        k(   29) = (  -0.5000000  -1.0000000   0.0000000), wk =   0.0234375

     Dense  grid:    28475 G-vectors     FFT dimensions: (  45,  45,  45)

     Smooth grid:     7239 G-vectors     FFT dimensions: (  27,  27,  27)

     Estimated max dynamical RAM per process >     106.89 MB

     Check: negative core charge=   -0.000002

     Initial potential from superposition of free atoms

     starting charge      17.9968, renormalised to      18.0000
     Starting wfcs are   13 randomized atomic wfcs

     total cpu time spent up to now is        0.8 secs

     Self-consistent Calculation

     iteration #  1     ecut=    30.00 Ry     beta= 0.70
     Davidson diagonalization with overlap
     ethr =  1.00E-02,  avg # of iterations =  1.3

     Threshold (ethr) on eigenvalues was too large:
     Diagonalizing with lowered threshold

     Davidson diagonalization with overlap
     ethr =  2.78E-04,  avg # of iterations =  2.0

     total cpu time spent up to now is        2.0 secs

     total energy              =    -191.00858581 Ry
     estimated scf accuracy    <       0.04899731 Ry

     iteration #  2     ecut=    30.00 Ry     beta= 0.70
     Davidson diagonalization with overlap
     ethr =  2.72E-04,  avg # of iterations =  2.5

     total cpu time spent up to now is        2.7 secs

     total energy              =    -191.01889053 Ry
     estimated scf accuracy    <       0.01068272 Ry

     iteration #  3     ecut=    30.00 Ry     beta= 0.70
     Davidson diagonalization with overlap
     ethr =  5.93E-05,  avg # of iterations =  2.0

     total cpu time spent up to now is        3.5 secs

     total energy              =    -191.02076540 Ry
     estimated scf accuracy    <       0.00040662 Ry

     iteration #  4     ecut=    30.00 Ry     beta= 0.70
     Davidson diagonalization with overlap
     ethr =  2.26E-06,  avg # of iterations =  3.3

     total cpu time spent up to now is        4.2 secs

     total energy              =    -191.02085014 Ry
     estimated scf accuracy    <       0.00011794 Ry

     iteration #  5     ecut=    30.00 Ry     beta= 0.70
     Davidson diagonalization with overlap
     ethr =  6.55E-07,  avg # of iterations =  2.2

     total cpu time spent up to now is        4.9 secs

     total energy              =    -191.02085005 Ry
     estimated scf accuracy    <       0.00001631 Ry

     iteration #  6     ecut=    30.00 Ry     beta= 0.70
     Davidson diagonalization with overlap
     ethr =  9.06E-08,  avg # of iterations =  3.5

     total cpu time spent up to now is        5.7 secs

     total energy              =    -191.02085693 Ry
     estimated scf accuracy    <       0.00001206 Ry

     iteration #  7     ecut=    30.00 Ry     beta= 0.70
     Davidson diagonalization with overlap
     ethr =  6.70E-08,  avg # of iterations =  2.3

     total cpu time spent up to now is        6.4 secs

     total energy              =    -191.02085968 Ry
     estimated scf accuracy    <       0.00000006 Ry

     iteration #  8     ecut=    30.00 Ry     beta= 0.70
     Davidson diagonalization with overlap
     ethr =  3.44E-10,  avg # of iterations =  5.5

     total cpu time spent up to now is        7.3 secs

     total energy              =    -191.02085961 Ry
     estimated scf accuracy    <       0.00000041 Ry

     iteration #  9     ecut=    30.00 Ry     beta= 0.70
     Davidson diagonalization with overlap
     ethr =  3.44E-10,  avg # of iterations =  3.1

     total cpu time spent up to now is        8.1 secs

     End of self-consistent calculation

          k = 0.0000 0.0000 0.0000 (   893 PWs)   bands (ev):

    -8.6303  -8.6303  -8.6303  -8.5634  -8.5634  -6.2473   6.0763   6.0763
     6.0763

          k =-0.1250 0.1250-0.1250 (   914 PWs)   bands (ev):

    -8.6401  -8.6278  -8.6278  -8.5650  -8.5650  -6.0807   4.0709   5.8604
     5.8604

          k =-0.2500 0.2500-0.2500 (   902 PWs)   bands (ev):

    -8.6613  -8.6211  -8.6211  -8.5640  -8.5640  -5.6164   2.0390   5.4514
     5.4514

          k =-0.3750 0.3750-0.3750 (   905 PWs)   bands (ev):

    -8.6829  -8.6156  -8.6156  -8.5619  -8.5619  -5.0030   0.4218   5.1334
     5.1334

          k = 0.5000-0.5000 0.5000 (   886 PWs)   bands (ev):

    -8.6906  -8.6138  -8.6138  -8.5596  -8.5596  -4.6624  -0.2622   5.0188
     5.0188

          k = 0.0000 0.2500 0.0000 (   901 PWs)   bands (ev):

    -8.6460  -8.6244  -8.6244  -8.5669  -8.5624  -6.0250   3.9994   5.4764
     5.4764

          k =-0.1250 0.3750-0.1250 (   900 PWs)   bands (ev):

    -8.6639  -8.6190  -8.6174  -8.5683  -8.5610  -5.6578   2.4810   4.9857
     5.0224

          k =-0.2500 0.5000-0.2500 (   892 PWs)   bands (ev):

    -8.6824  -8.6144  -8.6115  -8.5668  -8.5593  -5.0777   0.8646   4.4140
     4.7484

          k = 0.6250-0.3750 0.6250 (   900 PWs)   bands (ev):

    -8.6931  -8.6124  -8.6098  -8.5638  -8.5596  -4.5931  -0.1316   4.0082
     4.7368

          k = 0.5000-0.2500 0.5000 (   896 PWs)   bands (ev):

    -8.6900  -8.6123  -8.6117  -8.5621  -8.5616  -4.7135   0.0976   3.8864
     4.9827

          k = 0.3750-0.1250 0.3750 (   897 PWs)   bands (ev):

    -8.6744  -8.6172  -8.6152  -8.5656  -8.5615  -5.2864   1.3678   4.1184
     5.4087

          k = 0.2500 0.0000 0.2500 (   915 PWs)   bands (ev):

    -8.6546  -8.6245  -8.6213  -8.5667  -8.5634  -5.8136   2.9466   4.8262
     5.8162

          k = 0.0000 0.5000 0.0000 (   881 PWs)   bands (ev):

    -8.6792  -8.6093  -8.6093  -8.5721  -8.5581  -5.3996   2.0160   4.5176
     4.5176

          k =-0.1250 0.6250-0.1250 (   895 PWs)   bands (ev):

    -8.6944  -8.6047  -8.6027  -8.5749  -8.5567  -4.9061   0.9301   3.8378
     4.2080

          k = 0.7500-0.2500 0.7500 (   898 PWs)   bands (ev):

    -8.7016  -8.6048  -8.6004  -8.5723  -8.5574  -4.3953   0.0225   3.0667
     4.1895

          k = 0.6250-0.1250 0.6250 (   895 PWs)   bands (ev):

    -8.6989  -8.6072  -8.6026  -8.5673  -8.5610  -4.3171  -0.0884   2.6825
     4.4640

          k = 0.5000 0.0000 0.5000 (   889 PWs)   bands (ev):

    -8.6886  -8.6105  -8.6089  -8.5645  -8.5632  -4.7619   0.5955   2.9580
     4.9480

          k = 0.0000 0.7500 0.0000 (   894 PWs)   bands (ev):

    -8.7079  -8.5949  -8.5949  -8.5808  -8.5540  -4.5333   0.3286   3.8346
     3.8346

          k = 0.8750-0.1250 0.8750 (   902 PWs)   bands (ev):

    -8.7133  -8.5947  -8.5922  -8.5802  -8.5542  -4.1357  -0.2439   3.1953
     3.7536

          k = 0.7500 0.0000 0.7500 (   902 PWs)   bands (ev):

    -8.7087  -8.6003  -8.5949  -8.5751  -8.5576  -4.0353  -0.3152   2.5065
     3.9851

          k = 0.0000-1.0000 0.0000 (   934 PWs)   bands (ev):

    -8.7197  -8.5901  -8.5901  -8.5849  -8.5531  -3.9997  -0.4826   3.5944
     3.5944

          k =-0.2500 0.5000 0.0000 (   893 PWs)   bands (ev):

    -8.6802  -8.6128  -8.6103  -8.5697  -8.5594  -5.2250   1.4834   3.8607
     4.8727

          k = 0.6250-0.3750 0.8750 (   893 PWs)   bands (ev):

    -8.6933  -8.6099  -8.6047  -8.5687  -8.5593  -4.6604   0.3759   3.2347
     4.4730

          k = 0.5000-0.2500 0.7500 (   890 PWs)   bands (ev):

    -8.6981  -8.6093  -8.6025  -8.5668  -8.5599  -4.3536  -0.1553   3.0611
     4.2882

          k = 0.7500-0.2500 1.0000 (   896 PWs)   bands (ev):

    -8.7043  -8.6015  -8.5968  -8.5761  -8.5562  -4.4354   0.2076   3.2585
     3.7892

          k = 0.6250-0.1250 0.8750 (   904 PWs)   bands (ev):

    -8.7065  -8.6040  -8.5948  -8.5735  -8.5587  -4.0933  -0.2267   2.6840
     3.6253

          k = 0.5000 0.0000 0.7500 (   895 PWs)   bands (ev):

    -8.7017  -8.6072  -8.5977  -8.5699  -8.5604  -4.2159  -0.0732   2.5515
     3.9414

          k =-0.2500-1.0000 0.0000 (   904 PWs)   bands (ev):

    -8.7135  -8.5966  -8.5915  -8.5789  -8.5552  -3.9769  -0.4063   3.1670
     3.2607

          k =-0.5000-1.0000 0.0000 (   892 PWs)   bands (ev):

    -8.7073  -8.6045  -8.5919  -8.5726  -8.5596  -3.9536  -0.3213   2.8068
     2.9906

     highest occupied level (ev):     6.0763

!    total energy              =    -191.02085967 Ry
     estimated scf accuracy    <          8.3E-09 Ry

     The total energy is the sum of the following terms:
     one-electron contribution =    -114.71180565 Ry
     hartree contribution      =      72.74407832 Ry
     xc contribution           =     -57.85786659 Ry
     ewald contribution        =     -91.19526574 Ry

     convergence has been achieved in   9 iterations

     Writing all to output data dir ./SCRATCH/gallium_arsenide.save/

     init_run     :      0.62s CPU      0.76s WALL (       1 calls)
     electrons    :      5.73s CPU      7.22s WALL (       1 calls)

     Called by init_run:
     wfcinit      :      0.20s CPU      0.20s WALL (       1 calls)
     potinit      :      0.02s CPU      0.06s WALL (       1 calls)
     hinit0       :      0.36s CPU      0.35s WALL (       1 calls)

     Called by electrons:
     c_bands      :      3.97s CPU      4.07s WALL (      10 calls)
     sum_band     :      1.05s CPU      1.83s WALL (      10 calls)
     v_of_rho     :      0.27s CPU      0.29s WALL (      10 calls)
     newd         :      0.47s CPU      1.17s WALL (      10 calls)
     mix_rho      :      0.03s CPU      0.02s WALL (      10 calls)

     Called by c_bands:
     init_us_2    :      0.12s CPU      0.12s WALL (     609 calls)
     init_us_2:cp :      0.12s CPU      0.11s WALL (     609 calls)
     cegterg      :      3.84s CPU      3.85s WALL (     290 calls)

     Called by *egterg:
     cdiaghg      :      0.09s CPU      0.06s WALL (    1070 calls)
     h_psi        :      3.33s CPU      3.32s WALL (    1128 calls)
     s_psi        :      0.11s CPU      0.15s WALL (    1128 calls)
     g_psi        :      0.02s CPU      0.01s WALL (     809 calls)

     Called by h_psi:
     h_psi:calbec :      0.20s CPU      0.20s WALL (    1128 calls)
     vloc_psi     :      2.95s CPU      2.95s WALL (    1128 calls)
     add_vuspsi   :      0.17s CPU      0.15s WALL (    1128 calls)

     General routines
     calbec       :      0.22s CPU      0.26s WALL (    1418 calls)
     fft          :      0.19s CPU      0.14s WALL (     129 calls)
     ffts         :      0.00s CPU      0.01s WALL (      20 calls)
     fftw         :      2.95s CPU      2.93s WALL (   18434 calls)
     interpolate  :      0.02s CPU      0.02s WALL (      10 calls)


     PWSCF        :      6.47s CPU      8.09s WALL


   This run was terminated on:  11:21: 9  11Jun2024            

=------------------------------------------------------------------------------=
   JOB DONE.
=------------------------------------------------------------------------------=
