
     Program PWSCF v.7.2 starts on 25May2024 at 12:16:53 

     This program is part of the open-source Quantum ESPRESSO suite
     for quantum simulation of materials; please cite
         "P. Giannozzi et al., J. Phys.:Condens. Matter 21 395502 (2009);
         "P. Giannozzi et al., J. Phys.:Condens. Matter 29 465901 (2017);
         "P. Giannozzi et al., J. Chem. Phys. 152 154105 (2020);
          URL http://www.quantum-espresso.org", 
     in publications or presentations arising from this work. More details at
     http://www.quantum-espresso.org/quote

     Serial version
     8217 MiB available memory on the printing compute node when the environment starts

     Waiting for input...
     Reading input from standard input

     Current dimensions of program PWSCF are:
     Max number of different atomic species (ntypx) = 10
     Max number of k-points (npk) =  40000
     Max angular momentum in pseudopotentials (lmaxx) =  4


     G-vector sticks info
     --------------------
     sticks:   dense  smooth     PW     G-vecs:    dense   smooth      PW
     Sum         823     823    253                15473    15473    2637

     Using Slab Decomposition



     bravais-lattice index     =            2
     lattice parameter (alat)  =      10.8966  a.u.
     unit-cell volume          =     323.4510 (a.u.)^3
     number of atoms/cell      =            2
     number of atomic types    =            2
     number of electrons       =         8.00
     number of Kohn-Sham states=            4
     kinetic-energy cutoff     =      50.0000  Ry
     charge density cutoff     =     200.0000  Ry
     scf convergence threshold =      1.0E-08
     mixing beta               =       0.7000
     number of iterations used =            8  plain     mixing
     Exchange-correlation= SLA  PZ   NOGX NOGC
                           (   1   1   0   0   0   0   0)

     celldm(1)=  10.896563  celldm(2)=   0.000000  celldm(3)=   0.000000
     celldm(4)=   0.000000  celldm(5)=   0.000000  celldm(6)=   0.000000

     crystal axes: (cart. coord. in units of alat)
               a(1) = (  -0.500000   0.000000   0.500000 )  
               a(2) = (   0.000000   0.500000   0.500000 )  
               a(3) = (  -0.500000   0.500000   0.000000 )  

     reciprocal axes: (cart. coord. in units 2 pi/alat)
               b(1) = ( -1.000000 -1.000000  1.000000 )  
               b(2) = (  1.000000  1.000000  1.000000 )  
               b(3) = ( -1.000000  1.000000 -1.000000 )  


     PseudoPot. # 1 for Ga read from file:
     /home/paolo/project_labqsm/pseudopotentials/Ga.pz-bhs.UPF
     MD5 check sum: 09b06f4702dea281feaf053846378b49
     Pseudo is Norm-conserving, Zval =  3.0
     Generated by new atomic code, or converted to UPF format
     Using radial grid of  523 points,  2 beta functions with: 
                l(1) =   0
                l(2) =   1

     PseudoPot. # 2 for As read from file:
     /home/paolo/project_labqsm/pseudopotentials/As.pz-bhs.UPF
     MD5 check sum: d67708448008dff3ec15a9356ed645c7
     Pseudo is Norm-conserving, Zval =  5.0
     Generated by new atomic code, or converted to UPF format
     Using radial grid of  525 points,  2 beta functions with: 
                l(1) =   0
                l(2) =   1

     atomic species   valence    mass     pseudopotential
        Ga             3.00    69.72300     Ga( 1.00)
        As             5.00    74.92200     As( 1.00)

     24 Sym. Ops. (no inversion) found



   Cartesian axes

     site n.     atom                  positions (alat units)
         1           Ga  tau(   1) = (   0.0000000   0.0000000   0.0000000  )
         2           As  tau(   2) = (   0.2500000   0.2500000   0.2500000  )

     number of k points=    29
                       cart. coord. in units 2pi/alat
        k(    1) = (   0.0000000   0.0000000   0.0000000), wk =   0.0039062
        k(    2) = (  -0.1250000   0.1250000  -0.1250000), wk =   0.0312500
        k(    3) = (  -0.2500000   0.2500000  -0.2500000), wk =   0.0312500
        k(    4) = (  -0.3750000   0.3750000  -0.3750000), wk =   0.0312500
        k(    5) = (   0.5000000  -0.5000000   0.5000000), wk =   0.0156250
        k(    6) = (   0.0000000   0.2500000   0.0000000), wk =   0.0234375
        k(    7) = (  -0.1250000   0.3750000  -0.1250000), wk =   0.0937500
        k(    8) = (  -0.2500000   0.5000000  -0.2500000), wk =   0.0937500
        k(    9) = (   0.6250000  -0.3750000   0.6250000), wk =   0.0937500
        k(   10) = (   0.5000000  -0.2500000   0.5000000), wk =   0.0937500
        k(   11) = (   0.3750000  -0.1250000   0.3750000), wk =   0.0937500
        k(   12) = (   0.2500000   0.0000000   0.2500000), wk =   0.0468750
        k(   13) = (   0.0000000   0.5000000   0.0000000), wk =   0.0234375
        k(   14) = (  -0.1250000   0.6250000  -0.1250000), wk =   0.0937500
        k(   15) = (   0.7500000  -0.2500000   0.7500000), wk =   0.0937500
        k(   16) = (   0.6250000  -0.1250000   0.6250000), wk =   0.0937500
        k(   17) = (   0.5000000   0.0000000   0.5000000), wk =   0.0468750
        k(   18) = (   0.0000000   0.7500000   0.0000000), wk =   0.0234375
        k(   19) = (   0.8750000  -0.1250000   0.8750000), wk =   0.0937500
        k(   20) = (   0.7500000   0.0000000   0.7500000), wk =   0.0468750
        k(   21) = (   0.0000000  -1.0000000   0.0000000), wk =   0.0117188
        k(   22) = (  -0.2500000   0.5000000   0.0000000), wk =   0.0937500
        k(   23) = (   0.6250000  -0.3750000   0.8750000), wk =   0.1875000
        k(   24) = (   0.5000000  -0.2500000   0.7500000), wk =   0.0937500
        k(   25) = (   0.7500000  -0.2500000   1.0000000), wk =   0.0937500
        k(   26) = (   0.6250000  -0.1250000   0.8750000), wk =   0.1875000
        k(   27) = (   0.5000000   0.0000000   0.7500000), wk =   0.0937500
        k(   28) = (  -0.2500000  -1.0000000   0.0000000), wk =   0.0468750
        k(   29) = (  -0.5000000  -1.0000000   0.0000000), wk =   0.0234375

     Dense  grid:    15473 G-vectors     FFT dimensions: (  36,  36,  36)

     Estimated max dynamical RAM per process >      14.55 MB

     Initial potential from superposition of free atoms

     starting charge       7.9979, renormalised to       8.0000
     Starting wfcs are    8 randomized atomic wfcs

     total cpu time spent up to now is        0.3 secs

     Self-consistent Calculation

     iteration #  1     ecut=    50.00 Ry     beta= 0.70
     Davidson diagonalization with overlap
     ethr =  1.00E-02,  avg # of iterations =  1.3

     Threshold (ethr) on eigenvalues was too large:
     Diagonalizing with lowered threshold

     Davidson diagonalization with overlap
     ethr =  4.51E-04,  avg # of iterations =  3.2

     total cpu time spent up to now is        0.8 secs

     total energy              =     -17.31025379 Ry
     estimated scf accuracy    <       0.03965173 Ry

     iteration #  2     ecut=    50.00 Ry     beta= 0.70
     Davidson diagonalization with overlap
     ethr =  4.96E-04,  avg # of iterations =  2.0

     total cpu time spent up to now is        1.1 secs

     total energy              =     -17.31668097 Ry
     estimated scf accuracy    <       0.00294806 Ry

     iteration #  3     ecut=    50.00 Ry     beta= 0.70
     Davidson diagonalization with overlap
     ethr =  3.69E-05,  avg # of iterations =  2.6

     total cpu time spent up to now is        1.4 secs

     total energy              =     -17.31725165 Ry
     estimated scf accuracy    <       0.00040591 Ry

     iteration #  4     ecut=    50.00 Ry     beta= 0.70
     Davidson diagonalization with overlap
     ethr =  5.07E-06,  avg # of iterations =  3.7

     total cpu time spent up to now is        1.8 secs

     total energy              =     -17.31753818 Ry
     estimated scf accuracy    <       0.00014318 Ry

     iteration #  5     ecut=    50.00 Ry     beta= 0.70
     Davidson diagonalization with overlap
     ethr =  1.79E-06,  avg # of iterations =  2.1

     total cpu time spent up to now is        2.1 secs

     total energy              =     -17.31752500 Ry
     estimated scf accuracy    <       0.00016004 Ry

     iteration #  6     ecut=    50.00 Ry     beta= 0.70
     Davidson diagonalization with overlap
     ethr =  1.79E-06,  avg # of iterations =  1.2

     total cpu time spent up to now is        2.3 secs

     total energy              =     -17.31754489 Ry
     estimated scf accuracy    <       0.00010378 Ry

     iteration #  7     ecut=    50.00 Ry     beta= 0.70
     Davidson diagonalization with overlap
     ethr =  1.30E-06,  avg # of iterations =  1.1

     total cpu time spent up to now is        2.5 secs

     total energy              =     -17.31757353 Ry
     estimated scf accuracy    <       0.00013405 Ry

     iteration #  8     ecut=    50.00 Ry     beta= 0.70
     Davidson diagonalization with overlap
     ethr =  1.30E-06,  avg # of iterations =  1.1

     total cpu time spent up to now is        2.8 secs

     total energy              =     -17.31761458 Ry
     estimated scf accuracy    <       0.00020012 Ry

     iteration #  9     ecut=    50.00 Ry     beta= 0.70
     Davidson diagonalization with overlap
     ethr =  1.30E-06,  avg # of iterations =  1.1

     total cpu time spent up to now is        3.0 secs

     total energy              =     -17.31763796 Ry
     estimated scf accuracy    <       0.00029752 Ry

     iteration # 10     ecut=    50.00 Ry     beta= 0.70
     Davidson diagonalization with overlap
     ethr =  1.30E-06,  avg # of iterations =  1.0

     total cpu time spent up to now is        3.2 secs

     total energy              =     -17.31759438 Ry
     estimated scf accuracy    <       0.00034924 Ry

     iteration # 11     ecut=    50.00 Ry     beta= 0.70
     Davidson diagonalization with overlap
     ethr =  1.30E-06,  avg # of iterations =  1.0

     total cpu time spent up to now is        3.4 secs

     total energy              =     -17.31761572 Ry
     estimated scf accuracy    <       0.00026852 Ry

     iteration # 12     ecut=    50.00 Ry     beta= 0.70
     Davidson diagonalization with overlap
     ethr =  1.30E-06,  avg # of iterations =  1.0

     total cpu time spent up to now is        3.7 secs

     total energy              =     -17.31743122 Ry
     estimated scf accuracy    <       0.00031841 Ry

     iteration # 13     ecut=    50.00 Ry     beta= 0.70
     Davidson diagonalization with overlap
     ethr =  1.30E-06,  avg # of iterations =  3.4

     total cpu time spent up to now is        4.0 secs

     total energy              =     -17.31749595 Ry
     estimated scf accuracy    <       0.00000066 Ry

     iteration # 14     ecut=    50.00 Ry     beta= 0.70
     Davidson diagonalization with overlap
     c_bands:  1 eigenvalues not converged
     ethr =  8.24E-09,  avg # of iterations = 11.7

     total cpu time spent up to now is        4.9 secs

     total energy              =     -17.31750644 Ry
     estimated scf accuracy    <       0.00001474 Ry

     iteration # 15     ecut=    50.00 Ry     beta= 0.70
     Davidson diagonalization with overlap
     c_bands:  1 eigenvalues not converged
     ethr =  8.24E-09,  avg # of iterations =  1.7

     total cpu time spent up to now is        5.2 secs

     total energy              =     -17.31750241 Ry
     estimated scf accuracy    <       0.00001618 Ry

     iteration # 16     ecut=    50.00 Ry     beta= 0.70
     Davidson diagonalization with overlap
     ethr =  8.24E-09,  avg # of iterations =  2.7

     total cpu time spent up to now is        5.5 secs

     total energy              =     -17.31750226 Ry
     estimated scf accuracy    <       0.00000748 Ry

     iteration # 17     ecut=    50.00 Ry     beta= 0.70
     Davidson diagonalization with overlap
     ethr =  8.24E-09,  avg # of iterations =  1.5

     total cpu time spent up to now is        5.8 secs

     total energy              =     -17.31750218 Ry
     estimated scf accuracy    <       0.00000603 Ry

     iteration # 18     ecut=    50.00 Ry     beta= 0.70
     Davidson diagonalization with overlap
     ethr =  8.24E-09,  avg # of iterations =  1.0

     total cpu time spent up to now is        6.0 secs

     total energy              =     -17.31750109 Ry
     estimated scf accuracy    <       0.00000559 Ry

     iteration # 19     ecut=    50.00 Ry     beta= 0.70
     Davidson diagonalization with overlap
     ethr =  8.24E-09,  avg # of iterations =  2.5

     total cpu time spent up to now is        6.3 secs

     total energy              =     -17.31749926 Ry
     estimated scf accuracy    <       0.00000276 Ry

     iteration # 20     ecut=    50.00 Ry     beta= 0.70
     Davidson diagonalization with overlap
     ethr =  8.24E-09,  avg # of iterations =  6.3

     total cpu time spent up to now is        6.9 secs

     total energy              =     -17.31750058 Ry
     estimated scf accuracy    <       0.00000260 Ry

     iteration # 21     ecut=    50.00 Ry     beta= 0.70
     Davidson diagonalization with overlap
     ethr =  8.24E-09,  avg # of iterations =  2.0

     total cpu time spent up to now is        7.2 secs

     total energy              =     -17.31750041 Ry
     estimated scf accuracy    <       0.00000071 Ry

     iteration # 22     ecut=    50.00 Ry     beta= 0.70
     Davidson diagonalization with overlap
     ethr =  8.24E-09,  avg # of iterations =  2.0

     total cpu time spent up to now is        7.5 secs

     total energy              =     -17.31750047 Ry
     estimated scf accuracy    <       0.00000010 Ry

     iteration # 23     ecut=    50.00 Ry     beta= 0.70
     Davidson diagonalization with overlap
     ethr =  1.24E-09,  avg # of iterations =  5.4

     total cpu time spent up to now is        7.9 secs

     End of self-consistent calculation

          k = 0.0000 0.0000 0.0000 (  1917 PWs)   bands (ev):

    -8.0567   4.0165   4.0165   4.0165

          k =-0.1250 0.1250-0.1250 (  1934 PWs)   bands (ev):

    -7.9150   2.0580   3.8160   3.8160

          k =-0.2500 0.2500-0.2500 (  1934 PWs)   bands (ev):

    -7.5169   0.0113   3.4334   3.4334

          k =-0.3750 0.3750-0.3750 (  1922 PWs)   bands (ev):

    -6.9895  -1.5769   3.1352   3.1352

          k = 0.5000-0.5000 0.5000 (  1916 PWs)   bands (ev):

    -6.6996  -2.2307   3.0278   3.0278

          k = 0.0000 0.2500 0.0000 (  1937 PWs)   bands (ev):

    -7.8671   1.9835   3.4469   3.4469

          k =-0.1250 0.3750-0.1250 (  1940 PWs)   bands (ev):

    -7.5515   0.4481   2.9762   3.0145

          k =-0.2500 0.5000-0.2500 (  1952 PWs)   bands (ev):

    -7.0513  -1.1473   2.4136   2.7569

          k = 0.6250-0.3750 0.6250 (  1937 PWs)   bands (ev):

    -6.6374  -2.1029   2.0113   2.7514

          k = 0.5000-0.2500 0.5000 (  1930 PWs)   bands (ev):

    -6.7398  -1.8852   1.8903   2.9907

          k = 0.3750-0.1250 0.3750 (  1930 PWs)   bands (ev):

    -7.2317  -0.6544   2.1188   3.3981

          k = 0.2500 0.0000 0.2500 (  1943 PWs)   bands (ev):

    -7.6861   0.9175   2.8137   3.7815

          k = 0.0000 0.5000 0.0000 (  1964 PWs)   bands (ev):

    -7.3265  -0.0248   2.5267   2.5267

          k =-0.1250 0.6250-0.1250 (  1937 PWs)   bands (ev):

    -6.8985  -1.0908   1.8501   2.2309

          k = 0.7500-0.2500 0.7500 (  1923 PWs)   bands (ev):

    -6.4616  -1.9522   1.0708   2.2172

          k = 0.6250-0.1250 0.6250 (  1931 PWs)   bands (ev):

    -6.3975  -2.0503   0.6832   2.4856

          k = 0.5000 0.0000 0.5000 (  1923 PWs)   bands (ev):

    -6.7781  -1.4041   0.9601   2.9549

          k = 0.0000 0.7500 0.0000 (  1952 PWs)   bands (ev):

    -6.5735  -1.6760   1.8705   1.8705

          k = 0.8750-0.1250 0.8750 (  1935 PWs)   bands (ev):

    -6.2354  -2.2087   1.2199   1.7942

          k = 0.7500 0.0000 0.7500 (  1926 PWs)   bands (ev):

    -6.1551  -2.2597   0.5141   2.0199

          k = 0.0000-1.0000 0.0000 (  1964 PWs)   bands (ev):

    -6.1193  -2.4347   1.6402   1.6402

          k =-0.2500 0.5000 0.0000 (  1936 PWs)   bands (ev):

    -7.1768  -0.5448   1.8659   2.8738

          k = 0.6250-0.3750 0.8750 (  1931 PWs)   bands (ev):

    -6.6902  -1.6166   1.2385   2.4847

          k = 0.5000-0.2500 0.7500 (  1918 PWs)   bands (ev):

    -6.4297  -2.1165   1.0617   2.3051

          k = 0.7500-0.2500 1.0000 (  1936 PWs)   bands (ev):

    -6.4924  -1.7814   1.2747   1.8116

          k = 0.6250-0.1250 0.8750 (  1923 PWs)   bands (ev):

    -6.2043  -2.1764   0.6887   1.6481

          k = 0.5000 0.0000 0.7500 (  1926 PWs)   bands (ev):

    -6.3093  -2.0319   0.5537   1.9589

          k =-0.2500-1.0000 0.0000 (  1928 PWs)   bands (ev):

    -6.1032  -2.3508   1.1771   1.3000

          k =-0.5000-1.0000 0.0000 (  1912 PWs)   bands (ev):

    -6.0869  -2.2560   0.7901   1.0283

     highest occupied level (ev):     4.0165

!    total energy              =     -17.31750054 Ry
     estimated scf accuracy    <          8.8E-09 Ry

     The total energy is the sum of the following terms:
     one-electron contribution =       2.27310614 Ry
     hartree contribution      =       1.63651361 Ry
     xc contribution           =      -4.71334459 Ry
     ewald contribution        =     -16.51377569 Ry

     convergence has been achieved in  23 iterations

     Writing all to output data dir ./SCRATCH/gallium_arsenide.save/

     init_run     :      0.23s CPU      0.25s WALL (       1 calls)
     electrons    :      7.48s CPU      7.66s WALL (       1 calls)

     Called by init_run:
     wfcinit      :      0.19s CPU      0.20s WALL (       1 calls)
     potinit      :      0.00s CPU      0.01s WALL (       1 calls)
     hinit0       :      0.03s CPU      0.03s WALL (       1 calls)

     Called by electrons:
     c_bands      :      6.38s CPU      6.50s WALL (      24 calls)
     sum_band     :      1.00s CPU      1.04s WALL (      24 calls)
     v_of_rho     :      0.03s CPU      0.05s WALL (      24 calls)
     mix_rho      :      0.08s CPU      0.05s WALL (      24 calls)

     Called by c_bands:
     init_us_2    :      0.27s CPU      0.27s WALL (    1421 calls)
     init_us_2:cp :      0.27s CPU      0.26s WALL (    1421 calls)
     cegterg      :      6.14s CPU      6.21s WALL (     696 calls)

     Called by *egterg:
     cdiaghg      :      0.02s CPU      0.04s WALL (    2484 calls)
     h_psi        :      5.64s CPU      5.77s WALL (    2542 calls)
     g_psi        :      0.02s CPU      0.03s WALL (    1817 calls)

     Called by h_psi:
     h_psi:calbec :      0.11s CPU      0.15s WALL (    2542 calls)
     vloc_psi     :      5.39s CPU      5.46s WALL (    2542 calls)
     add_vuspsi   :      0.11s CPU      0.11s WALL (    2542 calls)

     General routines
     calbec       :      0.11s CPU      0.14s WALL (    2542 calls)
     fft          :      0.02s CPU      0.03s WALL (      72 calls)
     ffts         :      0.02s CPU      0.01s WALL (      24 calls)
     fftw         :      5.58s CPU      5.64s WALL (   20190 calls)


     PWSCF        :      7.73s CPU      7.93s WALL


   This run was terminated on:  12:17: 1  25May2024            

=------------------------------------------------------------------------------=
   JOB DONE.
=------------------------------------------------------------------------------=
