
     Program PWSCF v.7.2 starts on 25May2024 at 12:14:33 

     This program is part of the open-source Quantum ESPRESSO suite
     for quantum simulation of materials; please cite
         "P. Giannozzi et al., J. Phys.:Condens. Matter 21 395502 (2009);
         "P. Giannozzi et al., J. Phys.:Condens. Matter 29 465901 (2017);
         "P. Giannozzi et al., J. Chem. Phys. 152 154105 (2020);
          URL http://www.quantum-espresso.org", 
     in publications or presentations arising from this work. More details at
     http://www.quantum-espresso.org/quote

     Serial version
     8205 MiB available memory on the printing compute node when the environment starts

     Waiting for input...
     Reading input from standard input

     Current dimensions of program PWSCF are:
     Max number of different atomic species (ntypx) = 10
     Max number of k-points (npk) =  40000
     Max angular momentum in pseudopotentials (lmaxx) =  4


     G-vector sticks info
     --------------------
     sticks:   dense  smooth     PW     G-vecs:    dense   smooth      PW
     Sum         955     955    283                19195    19195    3143

     Using Slab Decomposition



     bravais-lattice index     =            2
     lattice parameter (alat)  =      10.6829  a.u.
     unit-cell volume          =     304.7951 (a.u.)^3
     number of atoms/cell      =            2
     number of atomic types    =            2
     number of electrons       =         8.00
     number of Kohn-Sham states=            4
     kinetic-energy cutoff     =      60.0000  Ry
     charge density cutoff     =     240.0000  Ry
     scf convergence threshold =      1.0E-08
     mixing beta               =       0.7000
     number of iterations used =            8  plain     mixing
     Exchange-correlation= SLA  PZ   NOGX NOGC
                           (   1   1   0   0   0   0   0)

     celldm(1)=  10.682904  celldm(2)=   0.000000  celldm(3)=   0.000000
     celldm(4)=   0.000000  celldm(5)=   0.000000  celldm(6)=   0.000000

     crystal axes: (cart. coord. in units of alat)
               a(1) = (  -0.500000   0.000000   0.500000 )  
               a(2) = (   0.000000   0.500000   0.500000 )  
               a(3) = (  -0.500000   0.500000   0.000000 )  

     reciprocal axes: (cart. coord. in units 2 pi/alat)
               b(1) = ( -1.000000 -1.000000  1.000000 )  
               b(2) = (  1.000000  1.000000  1.000000 )  
               b(3) = ( -1.000000  1.000000 -1.000000 )  


     PseudoPot. # 1 for Ga read from file:
     /home/paolo/project_labqsm/pseudopotentials/Ga.pz-bhs.UPF
     MD5 check sum: 09b06f4702dea281feaf053846378b49
     Pseudo is Norm-conserving, Zval =  3.0
     Generated by new atomic code, or converted to UPF format
     Using radial grid of  523 points,  2 beta functions with: 
                l(1) =   0
                l(2) =   1

     PseudoPot. # 2 for As read from file:
     /home/paolo/project_labqsm/pseudopotentials/As.pz-bhs.UPF
     MD5 check sum: d67708448008dff3ec15a9356ed645c7
     Pseudo is Norm-conserving, Zval =  5.0
     Generated by new atomic code, or converted to UPF format
     Using radial grid of  525 points,  2 beta functions with: 
                l(1) =   0
                l(2) =   1

     atomic species   valence    mass     pseudopotential
        Ga             3.00    69.72300     Ga( 1.00)
        As             5.00    74.92200     As( 1.00)

     24 Sym. Ops. (no inversion) found



   Cartesian axes

     site n.     atom                  positions (alat units)
         1           Ga  tau(   1) = (   0.0000000   0.0000000   0.0000000  )
         2           As  tau(   2) = (   0.2500000   0.2500000   0.2500000  )

     number of k points=    29
                       cart. coord. in units 2pi/alat
        k(    1) = (   0.0000000   0.0000000   0.0000000), wk =   0.0039062
        k(    2) = (  -0.1250000   0.1250000  -0.1250000), wk =   0.0312500
        k(    3) = (  -0.2500000   0.2500000  -0.2500000), wk =   0.0312500
        k(    4) = (  -0.3750000   0.3750000  -0.3750000), wk =   0.0312500
        k(    5) = (   0.5000000  -0.5000000   0.5000000), wk =   0.0156250
        k(    6) = (   0.0000000   0.2500000   0.0000000), wk =   0.0234375
        k(    7) = (  -0.1250000   0.3750000  -0.1250000), wk =   0.0937500
        k(    8) = (  -0.2500000   0.5000000  -0.2500000), wk =   0.0937500
        k(    9) = (   0.6250000  -0.3750000   0.6250000), wk =   0.0937500
        k(   10) = (   0.5000000  -0.2500000   0.5000000), wk =   0.0937500
        k(   11) = (   0.3750000  -0.1250000   0.3750000), wk =   0.0937500
        k(   12) = (   0.2500000   0.0000000   0.2500000), wk =   0.0468750
        k(   13) = (   0.0000000   0.5000000   0.0000000), wk =   0.0234375
        k(   14) = (  -0.1250000   0.6250000  -0.1250000), wk =   0.0937500
        k(   15) = (   0.7500000  -0.2500000   0.7500000), wk =   0.0937500
        k(   16) = (   0.6250000  -0.1250000   0.6250000), wk =   0.0937500
        k(   17) = (   0.5000000   0.0000000   0.5000000), wk =   0.0468750
        k(   18) = (   0.0000000   0.7500000   0.0000000), wk =   0.0234375
        k(   19) = (   0.8750000  -0.1250000   0.8750000), wk =   0.0937500
        k(   20) = (   0.7500000   0.0000000   0.7500000), wk =   0.0468750
        k(   21) = (   0.0000000  -1.0000000   0.0000000), wk =   0.0117188
        k(   22) = (  -0.2500000   0.5000000   0.0000000), wk =   0.0937500
        k(   23) = (   0.6250000  -0.3750000   0.8750000), wk =   0.1875000
        k(   24) = (   0.5000000  -0.2500000   0.7500000), wk =   0.0937500
        k(   25) = (   0.7500000  -0.2500000   1.0000000), wk =   0.0937500
        k(   26) = (   0.6250000  -0.1250000   0.8750000), wk =   0.1875000
        k(   27) = (   0.5000000   0.0000000   0.7500000), wk =   0.0937500
        k(   28) = (  -0.2500000  -1.0000000   0.0000000), wk =   0.0468750
        k(   29) = (  -0.5000000  -1.0000000   0.0000000), wk =   0.0234375

     Dense  grid:    19195 G-vectors     FFT dimensions: (  40,  40,  40)

     Estimated max dynamical RAM per process >      18.43 MB

     Initial potential from superposition of free atoms

     starting charge       7.9979, renormalised to       8.0000
     Starting wfcs are    8 randomized atomic wfcs

     total cpu time spent up to now is        0.4 secs

     Self-consistent Calculation

     iteration #  1     ecut=    60.00 Ry     beta= 0.70
     Davidson diagonalization with overlap
     ethr =  1.00E-02,  avg # of iterations =  1.4

     Threshold (ethr) on eigenvalues was too large:
     Diagonalizing with lowered threshold

     Davidson diagonalization with overlap
     ethr =  4.62E-04,  avg # of iterations =  3.4

     total cpu time spent up to now is        1.3 secs

     total energy              =     -17.31718156 Ry
     estimated scf accuracy    <       0.04130424 Ry

     iteration #  2     ecut=    60.00 Ry     beta= 0.70
     Davidson diagonalization with overlap
     ethr =  5.16E-04,  avg # of iterations =  2.0

     total cpu time spent up to now is        1.7 secs

     total energy              =     -17.32355200 Ry
     estimated scf accuracy    <       0.00263699 Ry

     iteration #  3     ecut=    60.00 Ry     beta= 0.70
     Davidson diagonalization with overlap
     ethr =  3.30E-05,  avg # of iterations =  3.1

     total cpu time spent up to now is        2.2 secs

     total energy              =     -17.32417807 Ry
     estimated scf accuracy    <       0.00045148 Ry

     iteration #  4     ecut=    60.00 Ry     beta= 0.70
     Davidson diagonalization with overlap
     ethr =  5.64E-06,  avg # of iterations =  3.3

     total cpu time spent up to now is        2.8 secs

     total energy              =     -17.32441342 Ry
     estimated scf accuracy    <       0.00018091 Ry

     iteration #  5     ecut=    60.00 Ry     beta= 0.70
     Davidson diagonalization with overlap
     ethr =  2.26E-06,  avg # of iterations =  1.8

     total cpu time spent up to now is        3.2 secs

     total energy              =     -17.32435763 Ry
     estimated scf accuracy    <       0.00010994 Ry

     iteration #  6     ecut=    60.00 Ry     beta= 0.70
     Davidson diagonalization with overlap
     ethr =  1.37E-06,  avg # of iterations =  2.4

     total cpu time spent up to now is        3.7 secs

     total energy              =     -17.32439726 Ry
     estimated scf accuracy    <       0.00000590 Ry

     iteration #  7     ecut=    60.00 Ry     beta= 0.70
     Davidson diagonalization with overlap
     ethr =  7.38E-08,  avg # of iterations =  6.1

     total cpu time spent up to now is        4.4 secs

     total energy              =     -17.32440580 Ry
     estimated scf accuracy    <       0.00002574 Ry

     iteration #  8     ecut=    60.00 Ry     beta= 0.70
     Davidson diagonalization with overlap
     ethr =  7.38E-08,  avg # of iterations =  1.0

     total cpu time spent up to now is        4.8 secs

     total energy              =     -17.32440606 Ry
     estimated scf accuracy    <       0.00002642 Ry

     iteration #  9     ecut=    60.00 Ry     beta= 0.70
     Davidson diagonalization with overlap
     ethr =  7.38E-08,  avg # of iterations =  1.0

     total cpu time spent up to now is        5.1 secs

     total energy              =     -17.32439991 Ry
     estimated scf accuracy    <       0.00002713 Ry

     iteration # 10     ecut=    60.00 Ry     beta= 0.70
     Davidson diagonalization with overlap
     ethr =  7.38E-08,  avg # of iterations =  1.3

     total cpu time spent up to now is        5.5 secs

     total energy              =     -17.32439891 Ry
     estimated scf accuracy    <       0.00001433 Ry

     iteration # 11     ecut=    60.00 Ry     beta= 0.70
     Davidson diagonalization with overlap
     ethr =  7.38E-08,  avg # of iterations =  1.0

     total cpu time spent up to now is        5.8 secs

     total energy              =     -17.32439425 Ry
     estimated scf accuracy    <       0.00001114 Ry

     iteration # 12     ecut=    60.00 Ry     beta= 0.70
     Davidson diagonalization with overlap
     ethr =  7.38E-08,  avg # of iterations =  2.2

     total cpu time spent up to now is        6.3 secs

     total energy              =     -17.32439604 Ry
     estimated scf accuracy    <       0.00000127 Ry

     iteration # 13     ecut=    60.00 Ry     beta= 0.70
     Davidson diagonalization with overlap
     ethr =  1.58E-08,  avg # of iterations =  2.9

     total cpu time spent up to now is        6.7 secs

     total energy              =     -17.32439616 Ry
     estimated scf accuracy    <       0.00000139 Ry

     iteration # 14     ecut=    60.00 Ry     beta= 0.70
     Davidson diagonalization with overlap
     ethr =  1.58E-08,  avg # of iterations =  1.0

     total cpu time spent up to now is        7.1 secs

     total energy              =     -17.32439618 Ry
     estimated scf accuracy    <       0.00000115 Ry

     iteration # 15     ecut=    60.00 Ry     beta= 0.70
     Davidson diagonalization with overlap
     ethr =  1.43E-08,  avg # of iterations =  1.0

     total cpu time spent up to now is        7.4 secs

     total energy              =     -17.32439623 Ry
     estimated scf accuracy    <       0.00000106 Ry

     iteration # 16     ecut=    60.00 Ry     beta= 0.70
     Davidson diagonalization with overlap
     ethr =  1.33E-08,  avg # of iterations =  1.0

     total cpu time spent up to now is        7.7 secs

     total energy              =     -17.32439567 Ry
     estimated scf accuracy    <       0.00000106 Ry

     iteration # 17     ecut=    60.00 Ry     beta= 0.70
     Davidson diagonalization with overlap
     ethr =  1.33E-08,  avg # of iterations =  2.3

     total cpu time spent up to now is        8.2 secs

     End of self-consistent calculation

          k = 0.0000 0.0000 0.0000 (  2421 PWs)   bands (ev):

    -7.8528   4.5861   4.5861   4.5861

          k =-0.1250 0.1250-0.1250 (  2385 PWs)   bands (ev):

    -7.7006   2.6755   4.3676   4.3676

          k =-0.2500 0.2500-0.2500 (  2406 PWs)   bands (ev):

    -7.2701   0.4842   3.9559   3.9559

          k =-0.3750 0.3750-0.3750 (  2406 PWs)   bands (ev):

    -6.6895  -1.2317   3.6382   3.6382

          k = 0.5000-0.5000 0.5000 (  2392 PWs)   bands (ev):

    -6.3620  -1.9485   3.5242   3.5242

          k = 0.0000 0.2500 0.0000 (  2381 PWs)   bands (ev):

    -7.6493   2.6461   3.9631   3.9631

          k =-0.1250 0.3750-0.1250 (  2403 PWs)   bands (ev):

    -7.3084   0.9867   3.4753   3.4984

          k =-0.2500 0.5000-0.2500 (  2407 PWs)   bands (ev):

    -6.7605  -0.7469   2.8869   3.2254

          k = 0.6250-0.3750 0.6250 (  2402 PWs)   bands (ev):

    -6.2952  -1.7970   2.4608   3.2231

          k = 0.5000-0.2500 0.5000 (  2393 PWs)   bands (ev):

    -6.4115  -1.5564   2.3241   3.4823

          k = 0.3750-0.1250 0.3750 (  2395 PWs)   bands (ev):

    -6.9591  -0.2105   2.5499   3.9216

          k = 0.2500 0.0000 0.2500 (  2401 PWs)   bands (ev):

    -7.4539   1.4842   3.2774   4.3353

          k = 0.0000 0.5000 0.0000 (  2413 PWs)   bands (ev):

    -7.0648   0.5183   2.9740   2.9740

          k =-0.1250 0.6250-0.1250 (  2393 PWs)   bands (ev):

    -6.5951  -0.6383   2.2521   2.6593

          k = 0.7500-0.2500 0.7500 (  2395 PWs)   bands (ev):

    -6.1035  -1.5922   1.4233   2.6468

          k = 0.6250-0.1250 0.6250 (  2379 PWs)   bands (ev):

    -6.0285  -1.7046   1.0051   2.9362

          k = 0.5000 0.0000 0.5000 (  2385 PWs)   bands (ev):

    -6.4583  -0.9924   1.2928   3.4419

          k = 0.0000 0.7500 0.0000 (  2393 PWs)   bands (ev):

    -6.2351  -1.2668   2.2744   2.2744

          k = 0.8750-0.1250 0.8750 (  2391 PWs)   bands (ev):

    -5.8499  -1.8570   1.5686   2.1939

          k = 0.7500 0.0000 0.7500 (  2382 PWs)   bands (ev):

    -5.7541  -1.9162   0.8033   2.4360

          k = 0.0000-1.0000 0.0000 (  2402 PWs)   bands (ev):

    -5.7163  -2.1114   2.0295   2.0295

          k =-0.2500 0.5000 0.0000 (  2391 PWs)   bands (ev):

    -6.9002  -0.0607   2.2630   3.3555

          k = 0.6250-0.3750 0.8750 (  2398 PWs)   bands (ev):

    -6.3602  -1.2312   1.6066   2.9315

          k = 0.5000-0.2500 0.7500 (  2392 PWs)   bands (ev):

    -6.0636  -1.7897   1.4288   2.7354

          k = 0.7500-0.2500 1.0000 (  2385 PWs)   bands (ev):

    -6.1417  -1.3851   1.6305   2.2024

          k = 0.6250-0.1250 0.8750 (  2389 PWs)   bands (ev):

    -5.8109  -1.8239   0.9969   2.0254

          k = 0.5000 0.0000 0.7500 (  2387 PWs)   bands (ev):

    -5.9303  -1.6658   0.8511   2.3613

          k =-0.2500-1.0000 0.0000 (  2386 PWs)   bands (ev):

    -5.6962  -2.0156   1.5245   1.6507

          k =-0.5000-1.0000 0.0000 (  2400 PWs)   bands (ev):

    -5.6757  -1.9057   1.1015   1.3510

     highest occupied level (ev):     4.5861

!    total energy              =     -17.32439589 Ry
     estimated scf accuracy    <          7.4E-09 Ry

     The total energy is the sum of the following terms:
     one-electron contribution =       2.72688273 Ry
     hartree contribution      =       1.55963552 Ry
     xc contribution           =      -4.76686297 Ry
     ewald contribution        =     -16.84405118 Ry

     convergence has been achieved in  17 iterations

     Writing all to output data dir ./SCRATCH/gallium_arsenide.save/

     init_run     :      0.36s CPU      0.37s WALL (       1 calls)
     electrons    :      7.61s CPU      7.83s WALL (       1 calls)

     Called by init_run:
     wfcinit      :      0.30s CPU      0.30s WALL (       1 calls)
     potinit      :      0.02s CPU      0.01s WALL (       1 calls)
     hinit0       :      0.03s CPU      0.03s WALL (       1 calls)

     Called by electrons:
     c_bands      :      6.28s CPU      6.51s WALL (      18 calls)
     sum_band     :      1.19s CPU      1.21s WALL (      18 calls)
     v_of_rho     :      0.08s CPU      0.06s WALL (      18 calls)
     mix_rho      :      0.05s CPU      0.05s WALL (      18 calls)

     Called by c_bands:
     init_us_2    :      0.27s CPU      0.25s WALL (    1073 calls)
     init_us_2:cp :      0.27s CPU      0.24s WALL (    1073 calls)
     cegterg      :      6.03s CPU      6.26s WALL (     522 calls)

     Called by *egterg:
     cdiaghg      :      0.05s CPU      0.03s WALL (    1604 calls)
     h_psi        :      5.91s CPU      6.07s WALL (    1662 calls)
     g_psi        :      0.00s CPU      0.02s WALL (    1111 calls)

     Called by h_psi:
     h_psi:calbec :      0.19s CPU      0.13s WALL (    1662 calls)
     vloc_psi     :      5.59s CPU      5.82s WALL (    1662 calls)
     add_vuspsi   :      0.11s CPU      0.09s WALL (    1662 calls)

     General routines
     calbec       :      0.19s CPU      0.12s WALL (    1662 calls)
     fft          :      0.08s CPU      0.04s WALL (      54 calls)
     ffts         :      0.00s CPU      0.01s WALL (      18 calls)
     fftw         :      5.98s CPU      6.25s WALL (   13644 calls)


     PWSCF        :      8.00s CPU      8.23s WALL


   This run was terminated on:  12:14:41  25May2024            

=------------------------------------------------------------------------------=
   JOB DONE.
=------------------------------------------------------------------------------=
