
     Program PWSCF v.7.2 starts on 11Jun2024 at 11:16:26 

     This program is part of the open-source Quantum ESPRESSO suite
     for quantum simulation of materials; please cite
         "P. Giannozzi et al., J. Phys.:Condens. Matter 21 395502 (2009);
         "P. Giannozzi et al., J. Phys.:Condens. Matter 29 465901 (2017);
         "P. Giannozzi et al., J. Chem. Phys. 152 154105 (2020);
          URL http://www.quantum-espresso.org", 
     in publications or presentations arising from this work. More details at
     http://www.quantum-espresso.org/quote

     Serial version
     8902 MiB available memory on the printing compute node when the environment starts

     Waiting for input...
     Reading input from standard input

     Current dimensions of program PWSCF are:
     Max number of different atomic species (ntypx) = 10
     Max number of k-points (npk) =  40000
     Max angular momentum in pseudopotentials (lmaxx) =  4
     file Ga.pbe-dn-rrkjus_psl.0.2.UPF: wavefunction(s)  4S 3D renormalized


     G-vector sticks info
     --------------------
     sticks:   dense  smooth     PW     G-vecs:    dense   smooth      PW
     Sum        2455     967    301                80251    20179    3383

     Using Slab Decomposition



     bravais-lattice index     =            2
     lattice parameter (alat)  =      10.8966  a.u.
     unit-cell volume          =     323.4510 (a.u.)^3
     number of atoms/cell      =            2
     number of atomic types    =            2
     number of electrons       =        18.00
     number of Kohn-Sham states=            9
     kinetic-energy cutoff     =      60.0000  Ry
     charge density cutoff     =     600.0000  Ry
     scf convergence threshold =      1.0E-08
     mixing beta               =       0.7000
     number of iterations used =            8  plain     mixing
     Exchange-correlation= PBE
                           (   1   4   3   4   0   0   0)

     celldm(1)=  10.896563  celldm(2)=   0.000000  celldm(3)=   0.000000
     celldm(4)=   0.000000  celldm(5)=   0.000000  celldm(6)=   0.000000

     crystal axes: (cart. coord. in units of alat)
               a(1) = (  -0.500000   0.000000   0.500000 )  
               a(2) = (   0.000000   0.500000   0.500000 )  
               a(3) = (  -0.500000   0.500000   0.000000 )  

     reciprocal axes: (cart. coord. in units 2 pi/alat)
               b(1) = ( -1.000000 -1.000000  1.000000 )  
               b(2) = (  1.000000  1.000000  1.000000 )  
               b(3) = ( -1.000000  1.000000 -1.000000 )  


     PseudoPot. # 1 for Ga read from file:
     /home/paolo/project_labqsm/pseudopotentials/Ga.pbe-dn-rrkjus_psl.0.2.UPF
     MD5 check sum: ffdfce4fe0c152725d7fa40f12f9e9e5
     Pseudo is Ultrasoft + core correction, Zval = 13.0
     Generated using "atomic" code by A. Dal Corso  v.5.0.2 svn rev. 9415
     Using radial grid of 1205 points,  6 beta functions with: 
                l(1) =   0
                l(2) =   0
                l(3) =   1
                l(4) =   1
                l(5) =   2
                l(6) =   2
     Q(r) pseudized with 0 coefficients 


     PseudoPot. # 2 for As read from file:
     /home/paolo/project_labqsm/pseudopotentials/As.pbe-n-rrkjus_psl.0.2.UPF
     MD5 check sum: f98050c7212d27f7cb33035312670de9
     Pseudo is Ultrasoft + core correction, Zval =  5.0
     Generated using "atomic" code by A. Dal Corso  v.5.0.2 svn rev. 9415
     Using radial grid of 1209 points,  4 beta functions with: 
                l(1) =   0
                l(2) =   0
                l(3) =   1
                l(4) =   1
     Q(r) pseudized with 0 coefficients 


     atomic species   valence    mass     pseudopotential
        Ga            13.00    69.72300     Ga( 1.00)
        As             5.00    74.92200     As( 1.00)

     24 Sym. Ops. (no inversion) found



   Cartesian axes

     site n.     atom                  positions (alat units)
         1           Ga  tau(   1) = (   0.0000000   0.0000000   0.0000000  )
         2           As  tau(   2) = (   0.2500000   0.2500000   0.2500000  )

     number of k points=    29
                       cart. coord. in units 2pi/alat
        k(    1) = (   0.0000000   0.0000000   0.0000000), wk =   0.0039062
        k(    2) = (  -0.1250000   0.1250000  -0.1250000), wk =   0.0312500
        k(    3) = (  -0.2500000   0.2500000  -0.2500000), wk =   0.0312500
        k(    4) = (  -0.3750000   0.3750000  -0.3750000), wk =   0.0312500
        k(    5) = (   0.5000000  -0.5000000   0.5000000), wk =   0.0156250
        k(    6) = (   0.0000000   0.2500000   0.0000000), wk =   0.0234375
        k(    7) = (  -0.1250000   0.3750000  -0.1250000), wk =   0.0937500
        k(    8) = (  -0.2500000   0.5000000  -0.2500000), wk =   0.0937500
        k(    9) = (   0.6250000  -0.3750000   0.6250000), wk =   0.0937500
        k(   10) = (   0.5000000  -0.2500000   0.5000000), wk =   0.0937500
        k(   11) = (   0.3750000  -0.1250000   0.3750000), wk =   0.0937500
        k(   12) = (   0.2500000   0.0000000   0.2500000), wk =   0.0468750
        k(   13) = (   0.0000000   0.5000000   0.0000000), wk =   0.0234375
        k(   14) = (  -0.1250000   0.6250000  -0.1250000), wk =   0.0937500
        k(   15) = (   0.7500000  -0.2500000   0.7500000), wk =   0.0937500
        k(   16) = (   0.6250000  -0.1250000   0.6250000), wk =   0.0937500
        k(   17) = (   0.5000000   0.0000000   0.5000000), wk =   0.0468750
        k(   18) = (   0.0000000   0.7500000   0.0000000), wk =   0.0234375
        k(   19) = (   0.8750000  -0.1250000   0.8750000), wk =   0.0937500
        k(   20) = (   0.7500000   0.0000000   0.7500000), wk =   0.0468750
        k(   21) = (   0.0000000  -1.0000000   0.0000000), wk =   0.0117188
        k(   22) = (  -0.2500000   0.5000000   0.0000000), wk =   0.0937500
        k(   23) = (   0.6250000  -0.3750000   0.8750000), wk =   0.1875000
        k(   24) = (   0.5000000  -0.2500000   0.7500000), wk =   0.0937500
        k(   25) = (   0.7500000  -0.2500000   1.0000000), wk =   0.0937500
        k(   26) = (   0.6250000  -0.1250000   0.8750000), wk =   0.1875000
        k(   27) = (   0.5000000   0.0000000   0.7500000), wk =   0.0937500
        k(   28) = (  -0.2500000  -1.0000000   0.0000000), wk =   0.0468750
        k(   29) = (  -0.5000000  -1.0000000   0.0000000), wk =   0.0234375

     Dense  grid:    80251 G-vectors     FFT dimensions: (  64,  64,  64)

     Smooth grid:    20179 G-vectors     FFT dimensions: (  40,  40,  40)

     Estimated max dynamical RAM per process >     297.74 MB

     Initial potential from superposition of free atoms

     starting charge      17.9968, renormalised to      18.0000
     Starting wfcs are   13 randomized atomic wfcs

     total cpu time spent up to now is        1.8 secs

     Self-consistent Calculation

     iteration #  1     ecut=    60.00 Ry     beta= 0.70
     Davidson diagonalization with overlap
     ethr =  1.00E-02,  avg # of iterations =  1.3

     Threshold (ethr) on eigenvalues was too large:
     Diagonalizing with lowered threshold

     Davidson diagonalization with overlap
     ethr =  2.82E-04,  avg # of iterations =  2.0

     total cpu time spent up to now is        5.2 secs

     total energy              =    -191.01350488 Ry
     estimated scf accuracy    <       0.04894273 Ry

     iteration #  2     ecut=    60.00 Ry     beta= 0.70
     Davidson diagonalization with overlap
     ethr =  2.72E-04,  avg # of iterations =  2.5

     total cpu time spent up to now is        7.3 secs

     total energy              =    -191.02370776 Ry
     estimated scf accuracy    <       0.01060249 Ry

     iteration #  3     ecut=    60.00 Ry     beta= 0.70
     Davidson diagonalization with overlap
     ethr =  5.89E-05,  avg # of iterations =  2.0

     total cpu time spent up to now is        9.6 secs

     total energy              =    -191.02564154 Ry
     estimated scf accuracy    <       0.00044120 Ry

     iteration #  4     ecut=    60.00 Ry     beta= 0.70
     Davidson diagonalization with overlap
     ethr =  2.45E-06,  avg # of iterations =  3.3

     total cpu time spent up to now is       11.9 secs

     total energy              =    -191.02575106 Ry
     estimated scf accuracy    <       0.00010154 Ry

     iteration #  5     ecut=    60.00 Ry     beta= 0.70
     Davidson diagonalization with overlap
     ethr =  5.64E-07,  avg # of iterations =  1.8

     total cpu time spent up to now is       13.9 secs

     total energy              =    -191.02574133 Ry
     estimated scf accuracy    <       0.00002249 Ry

     iteration #  6     ecut=    60.00 Ry     beta= 0.70
     Davidson diagonalization with overlap
     ethr =  1.25E-07,  avg # of iterations =  3.6

     total cpu time spent up to now is       16.1 secs

     total energy              =    -191.02575087 Ry
     estimated scf accuracy    <       0.00002579 Ry

     iteration #  7     ecut=    60.00 Ry     beta= 0.70
     Davidson diagonalization with overlap
     ethr =  1.25E-07,  avg # of iterations =  2.0

     total cpu time spent up to now is       18.2 secs

     total energy              =    -191.02575180 Ry
     estimated scf accuracy    <       0.00000235 Ry

     iteration #  8     ecut=    60.00 Ry     beta= 0.70
     Davidson diagonalization with overlap
     ethr =  1.30E-08,  avg # of iterations =  3.5

     total cpu time spent up to now is       20.3 secs

     total energy              =    -191.02575272 Ry
     estimated scf accuracy    <       0.00000014 Ry

     iteration #  9     ecut=    60.00 Ry     beta= 0.70
     Davidson diagonalization with overlap
     ethr =  7.55E-10,  avg # of iterations =  2.2

     total cpu time spent up to now is       22.3 secs

     total energy              =    -191.02575268 Ry
     estimated scf accuracy    <       0.00000008 Ry

     iteration # 10     ecut=    60.00 Ry     beta= 0.70
     Davidson diagonalization with overlap
     ethr =  4.28E-10,  avg # of iterations =  2.6

     total cpu time spent up to now is       24.4 secs

     End of self-consistent calculation

          k = 0.0000 0.0000 0.0000 (  2637 PWs)   bands (ev):

    -8.6294  -8.6294  -8.6294  -8.5640  -8.5640  -6.2476   6.0756   6.0756
     6.0756

          k =-0.1250 0.1250-0.1250 (  2559 PWs)   bands (ev):

    -8.6393  -8.6265  -8.6265  -8.5640  -8.5640  -6.0810   4.0704   5.8596
     5.8596

          k =-0.2500 0.2500-0.2500 (  2548 PWs)   bands (ev):

    -8.6617  -8.6202  -8.6202  -8.5634  -8.5634  -5.6166   2.0385   5.4506
     5.4506

          k =-0.3750 0.3750-0.3750 (  2542 PWs)   bands (ev):

    -8.6824  -8.6152  -8.6152  -8.5615  -8.5615  -5.0032   0.4213   5.1326
     5.1326

          k = 0.5000-0.5000 0.5000 (  2512 PWs)   bands (ev):

    -8.6905  -8.6135  -8.6135  -8.5602  -8.5602  -4.6626  -0.2627   5.0179
     5.0179

          k = 0.0000 0.2500 0.0000 (  2557 PWs)   bands (ev):

    -8.6454  -8.6237  -8.6237  -8.5662  -8.5622  -6.0253   3.9990   5.4755
     5.4755

          k =-0.1250 0.3750-0.1250 (  2551 PWs)   bands (ev):

    -8.6635  -8.6184  -8.6172  -8.5679  -8.5607  -5.6581   2.4805   4.9849
     5.0216

          k =-0.2500 0.5000-0.2500 (  2550 PWs)   bands (ev):

    -8.6823  -8.6139  -8.6116  -8.5670  -8.5593  -5.0780   0.8641   4.4132
     4.7475

          k = 0.6250-0.3750 0.6250 (  2533 PWs)   bands (ev):

    -8.6927  -8.6118  -8.6096  -8.5639  -8.5595  -4.5933  -0.1321   4.0074
     4.7360

          k = 0.5000-0.2500 0.5000 (  2527 PWs)   bands (ev):

    -8.6896  -8.6120  -8.6113  -8.5624  -8.5616  -4.7137   0.0970   3.8856
     4.9819

          k = 0.3750-0.1250 0.3750 (  2540 PWs)   bands (ev):

    -8.6743  -8.6165  -8.6147  -8.5653  -8.5615  -5.2866   1.3673   4.1176
     5.4079

          k = 0.2500 0.0000 0.2500 (  2573 PWs)   bands (ev):

    -8.6539  -8.6232  -8.6204  -8.5656  -8.5625  -5.8139   2.9462   4.8254
     5.8154

          k = 0.0000 0.5000 0.0000 (  2557 PWs)   bands (ev):

    -8.6790  -8.6098  -8.6098  -8.5728  -8.5581  -5.3998   2.0155   4.5168
     4.5168

          k =-0.1250 0.6250-0.1250 (  2542 PWs)   bands (ev):

    -8.6940  -8.6046  -8.6031  -8.5747  -8.5564  -4.9063   0.9296   3.8370
     4.2072

          k = 0.7500-0.2500 0.7500 (  2530 PWs)   bands (ev):

    -8.7013  -8.6046  -8.6005  -8.5721  -8.5573  -4.3955   0.0219   3.0660
     4.1887

          k = 0.6250-0.1250 0.6250 (  2537 PWs)   bands (ev):

    -8.6990  -8.6071  -8.6025  -8.5672  -8.5612  -4.3172  -0.0890   2.6818
     4.4632

          k = 0.5000 0.0000 0.5000 (  2529 PWs)   bands (ev):

    -8.6887  -8.6103  -8.6088  -8.5648  -8.5630  -4.7620   0.5949   2.9572
     4.9471

          k = 0.0000 0.7500 0.0000 (  2518 PWs)   bands (ev):

    -8.7077  -8.5954  -8.5954  -8.5802  -8.5540  -4.5335   0.3281   3.8339
     3.8339

          k = 0.8750-0.1250 0.8750 (  2528 PWs)   bands (ev):

    -8.7131  -8.5945  -8.5924  -8.5799  -8.5540  -4.1358  -0.2445   3.1946
     3.7529

          k = 0.7500 0.0000 0.7500 (  2554 PWs)   bands (ev):

    -8.7086  -8.6002  -8.5949  -8.5745  -8.5575  -4.0353  -0.3158   2.5058
     3.9844

          k = 0.0000-1.0000 0.0000 (  2498 PWs)   bands (ev):

    -8.7186  -8.5894  -8.5894  -8.5835  -8.5523  -3.9998  -0.4831   3.5937
     3.5937

          k =-0.2500 0.5000 0.0000 (  2546 PWs)   bands (ev):

    -8.6800  -8.6126  -8.6103  -8.5699  -8.5591  -5.2252   1.4829   3.8599
     4.8718

          k = 0.6250-0.3750 0.8750 (  2536 PWs)   bands (ev):

    -8.6932  -8.6097  -8.6048  -8.5688  -8.5593  -4.6606   0.3753   3.2340
     4.4721

          k = 0.5000-0.2500 0.7500 (  2526 PWs)   bands (ev):

    -8.6982  -8.6091  -8.6028  -8.5668  -8.5603  -4.3537  -0.1559   3.0604
     4.2874

          k = 0.7500-0.2500 1.0000 (  2522 PWs)   bands (ev):

    -8.7041  -8.6017  -8.5968  -8.5759  -8.5560  -4.4355   0.2070   3.2578
     3.7884

          k = 0.6250-0.1250 0.8750 (  2537 PWs)   bands (ev):

    -8.7061  -8.6037  -8.5948  -8.5729  -8.5584  -4.0934  -0.2274   2.6833
     3.6245

          k = 0.5000 0.0000 0.7500 (  2537 PWs)   bands (ev):

    -8.7017  -8.6069  -8.5977  -8.5697  -8.5605  -4.2159  -0.0739   2.5508
     3.9406

          k =-0.2500-1.0000 0.0000 (  2530 PWs)   bands (ev):

    -8.7133  -8.5966  -8.5913  -8.5782  -8.5551  -3.9769  -0.4069   3.1664
     3.2599

          k =-0.5000-1.0000 0.0000 (  2520 PWs)   bands (ev):

    -8.7073  -8.6045  -8.5923  -8.5724  -8.5594  -3.9537  -0.3219   2.8062
     2.9897

     highest occupied level (ev):     6.0756

!    total energy              =    -191.02575270 Ry
     estimated scf accuracy    <          3.7E-09 Ry

     The total energy is the sum of the following terms:
     one-electron contribution =    -114.72144796 Ry
     hartree contribution      =      72.74991062 Ry
     xc contribution           =     -57.85894962 Ry
     ewald contribution        =     -91.19526574 Ry

     convergence has been achieved in  10 iterations

     Writing all to output data dir ./SCRATCH/gallium_arsenide.save/

     init_run     :      1.44s CPU      1.69s WALL (       1 calls)
     electrons    :     17.59s CPU     22.62s WALL (       1 calls)

     Called by init_run:
     wfcinit      :      0.58s CPU      0.57s WALL (       1 calls)
     potinit      :      0.11s CPU      0.17s WALL (       1 calls)
     hinit0       :      0.52s CPU      0.52s WALL (       1 calls)

     Called by electrons:
     c_bands      :     11.20s CPU     11.24s WALL (      11 calls)
     sum_band     :      3.61s CPU      6.19s WALL (      11 calls)
     v_of_rho     :      1.05s CPU      1.26s WALL (      11 calls)
     newd         :      1.83s CPU      4.27s WALL (      11 calls)
     mix_rho      :      0.12s CPU      0.09s WALL (      11 calls)

     Called by c_bands:
     init_us_2    :      0.27s CPU      0.34s WALL (     667 calls)
     init_us_2:cp :      0.27s CPU      0.34s WALL (     667 calls)
     cegterg      :     10.84s CPU     10.66s WALL (     319 calls)

     Called by *egterg:
     cdiaghg      :      0.09s CPU      0.06s WALL (    1073 calls)
     h_psi        :      9.20s CPU      9.44s WALL (    1131 calls)
     s_psi        :      0.47s CPU      0.39s WALL (    1131 calls)
     g_psi        :      0.00s CPU      0.03s WALL (     783 calls)

     Called by h_psi:
     h_psi:calbec :      0.72s CPU      0.55s WALL (    1131 calls)
     vloc_psi     :      8.19s CPU      8.47s WALL (    1131 calls)
     add_vuspsi   :      0.27s CPU      0.39s WALL (    1131 calls)

     General routines
     calbec       :      0.83s CPU      0.74s WALL (    1450 calls)
     fft          :      0.58s CPU      0.61s WALL (     142 calls)
     ffts         :      0.02s CPU      0.02s WALL (      22 calls)
     fftw         :      8.45s CPU      8.58s WALL (   18463 calls)
     interpolate  :      0.06s CPU      0.06s WALL (      11 calls)


     PWSCF        :     19.12s CPU     24.43s WALL


   This run was terminated on:  11:16:50  11Jun2024            

=------------------------------------------------------------------------------=
   JOB DONE.
=------------------------------------------------------------------------------=
