
     Program PWSCF v.7.2 starts on 25May2024 at 12:18: 5 

     This program is part of the open-source Quantum ESPRESSO suite
     for quantum simulation of materials; please cite
         "P. Giannozzi et al., J. Phys.:Condens. Matter 21 395502 (2009);
         "P. Giannozzi et al., J. Phys.:Condens. Matter 29 465901 (2017);
         "P. Giannozzi et al., J. Chem. Phys. 152 154105 (2020);
          URL http://www.quantum-espresso.org", 
     in publications or presentations arising from this work. More details at
     http://www.quantum-espresso.org/quote

     Serial version
     8844 MiB available memory on the printing compute node when the environment starts

     Waiting for input...
     Reading input from standard input

     Current dimensions of program PWSCF are:
     Max number of different atomic species (ntypx) = 10
     Max number of k-points (npk) =  40000
     Max angular momentum in pseudopotentials (lmaxx) =  4


     G-vector sticks info
     --------------------
     sticks:   dense  smooth     PW     G-vecs:    dense   smooth      PW
     Sum        1957    1957    559                57313    57313    8657

     Using Slab Decomposition



     bravais-lattice index     =            2
     lattice parameter (alat)  =      10.8966  a.u.
     unit-cell volume          =     323.4510 (a.u.)^3
     number of atoms/cell      =            2
     number of atomic types    =            2
     number of electrons       =         8.00
     number of Kohn-Sham states=            4
     kinetic-energy cutoff     =     120.0000  Ry
     charge density cutoff     =     480.0000  Ry
     scf convergence threshold =      1.0E-08
     mixing beta               =       0.7000
     number of iterations used =            8  plain     mixing
     Exchange-correlation= SLA  PZ   NOGX NOGC
                           (   1   1   0   0   0   0   0)

     celldm(1)=  10.896563  celldm(2)=   0.000000  celldm(3)=   0.000000
     celldm(4)=   0.000000  celldm(5)=   0.000000  celldm(6)=   0.000000

     crystal axes: (cart. coord. in units of alat)
               a(1) = (  -0.500000   0.000000   0.500000 )  
               a(2) = (   0.000000   0.500000   0.500000 )  
               a(3) = (  -0.500000   0.500000   0.000000 )  

     reciprocal axes: (cart. coord. in units 2 pi/alat)
               b(1) = ( -1.000000 -1.000000  1.000000 )  
               b(2) = (  1.000000  1.000000  1.000000 )  
               b(3) = ( -1.000000  1.000000 -1.000000 )  


     PseudoPot. # 1 for Ga read from file:
     /home/paolo/project_labqsm/pseudopotentials/Ga.pz-bhs.UPF
     MD5 check sum: 09b06f4702dea281feaf053846378b49
     Pseudo is Norm-conserving, Zval =  3.0
     Generated by new atomic code, or converted to UPF format
     Using radial grid of  523 points,  2 beta functions with: 
                l(1) =   0
                l(2) =   1

     PseudoPot. # 2 for As read from file:
     /home/paolo/project_labqsm/pseudopotentials/As.pz-bhs.UPF
     MD5 check sum: d67708448008dff3ec15a9356ed645c7
     Pseudo is Norm-conserving, Zval =  5.0
     Generated by new atomic code, or converted to UPF format
     Using radial grid of  525 points,  2 beta functions with: 
                l(1) =   0
                l(2) =   1

     atomic species   valence    mass     pseudopotential
        Ga             3.00    69.72300     Ga( 1.00)
        As             5.00    74.92200     As( 1.00)

     24 Sym. Ops. (no inversion) found



   Cartesian axes

     site n.     atom                  positions (alat units)
         1           Ga  tau(   1) = (   0.0000000   0.0000000   0.0000000  )
         2           As  tau(   2) = (   0.2500000   0.2500000   0.2500000  )

     number of k points=    29
                       cart. coord. in units 2pi/alat
        k(    1) = (   0.0000000   0.0000000   0.0000000), wk =   0.0039062
        k(    2) = (  -0.1250000   0.1250000  -0.1250000), wk =   0.0312500
        k(    3) = (  -0.2500000   0.2500000  -0.2500000), wk =   0.0312500
        k(    4) = (  -0.3750000   0.3750000  -0.3750000), wk =   0.0312500
        k(    5) = (   0.5000000  -0.5000000   0.5000000), wk =   0.0156250
        k(    6) = (   0.0000000   0.2500000   0.0000000), wk =   0.0234375
        k(    7) = (  -0.1250000   0.3750000  -0.1250000), wk =   0.0937500
        k(    8) = (  -0.2500000   0.5000000  -0.2500000), wk =   0.0937500
        k(    9) = (   0.6250000  -0.3750000   0.6250000), wk =   0.0937500
        k(   10) = (   0.5000000  -0.2500000   0.5000000), wk =   0.0937500
        k(   11) = (   0.3750000  -0.1250000   0.3750000), wk =   0.0937500
        k(   12) = (   0.2500000   0.0000000   0.2500000), wk =   0.0468750
        k(   13) = (   0.0000000   0.5000000   0.0000000), wk =   0.0234375
        k(   14) = (  -0.1250000   0.6250000  -0.1250000), wk =   0.0937500
        k(   15) = (   0.7500000  -0.2500000   0.7500000), wk =   0.0937500
        k(   16) = (   0.6250000  -0.1250000   0.6250000), wk =   0.0937500
        k(   17) = (   0.5000000   0.0000000   0.5000000), wk =   0.0468750
        k(   18) = (   0.0000000   0.7500000   0.0000000), wk =   0.0234375
        k(   19) = (   0.8750000  -0.1250000   0.8750000), wk =   0.0937500
        k(   20) = (   0.7500000   0.0000000   0.7500000), wk =   0.0468750
        k(   21) = (   0.0000000  -1.0000000   0.0000000), wk =   0.0117188
        k(   22) = (  -0.2500000   0.5000000   0.0000000), wk =   0.0937500
        k(   23) = (   0.6250000  -0.3750000   0.8750000), wk =   0.1875000
        k(   24) = (   0.5000000  -0.2500000   0.7500000), wk =   0.0937500
        k(   25) = (   0.7500000  -0.2500000   1.0000000), wk =   0.0937500
        k(   26) = (   0.6250000  -0.1250000   0.8750000), wk =   0.1875000
        k(   27) = (   0.5000000   0.0000000   0.7500000), wk =   0.0937500
        k(   28) = (  -0.2500000  -1.0000000   0.0000000), wk =   0.0468750
        k(   29) = (  -0.5000000  -1.0000000   0.0000000), wk =   0.0234375

     Dense  grid:    57313 G-vectors     FFT dimensions: (  54,  54,  54)

     Estimated max dynamical RAM per process >      52.47 MB

     Initial potential from superposition of free atoms

     starting charge       7.9979, renormalised to       8.0000
     Starting wfcs are    8 randomized atomic wfcs

     total cpu time spent up to now is        1.0 secs

     Self-consistent Calculation

     iteration #  1     ecut=   120.00 Ry     beta= 0.70
     Davidson diagonalization with overlap
     ethr =  1.00E-02,  avg # of iterations =  1.4

     Threshold (ethr) on eigenvalues was too large:
     Diagonalizing with lowered threshold

     Davidson diagonalization with overlap
     ethr =  4.61E-04,  avg # of iterations =  3.2

     total cpu time spent up to now is        3.6 secs

     total energy              =     -17.30999220 Ry
     estimated scf accuracy    <       0.04006428 Ry

     iteration #  2     ecut=   120.00 Ry     beta= 0.70
     Davidson diagonalization with overlap
     ethr =  5.01E-04,  avg # of iterations =  2.0

     total cpu time spent up to now is        5.0 secs

     total energy              =     -17.31677438 Ry
     estimated scf accuracy    <       0.00308887 Ry

     iteration #  3     ecut=   120.00 Ry     beta= 0.70
     Davidson diagonalization with overlap
     ethr =  3.86E-05,  avg # of iterations =  2.6

     total cpu time spent up to now is        6.3 secs

     total energy              =     -17.31733411 Ry
     estimated scf accuracy    <       0.00049845 Ry

     iteration #  4     ecut=   120.00 Ry     beta= 0.70
     Davidson diagonalization with overlap
     ethr =  6.23E-06,  avg # of iterations =  3.7

     total cpu time spent up to now is        8.1 secs

     total energy              =     -17.31771897 Ry
     estimated scf accuracy    <       0.00023737 Ry

     iteration #  5     ecut=   120.00 Ry     beta= 0.70
     Davidson diagonalization with overlap
     ethr =  2.97E-06,  avg # of iterations =  1.9

     total cpu time spent up to now is        9.2 secs

     total energy              =     -17.31760236 Ry
     estimated scf accuracy    <       0.00033275 Ry

     iteration #  6     ecut=   120.00 Ry     beta= 0.70
     Davidson diagonalization with overlap
     ethr =  2.97E-06,  avg # of iterations =  1.5

     total cpu time spent up to now is       10.3 secs

     total energy              =     -17.31759617 Ry
     estimated scf accuracy    <       0.00008514 Ry

     iteration #  7     ecut=   120.00 Ry     beta= 0.70
     Davidson diagonalization with overlap
     ethr =  1.06E-06,  avg # of iterations =  2.1

     total cpu time spent up to now is       11.5 secs

     total energy              =     -17.31759832 Ry
     estimated scf accuracy    <       0.00002965 Ry

     iteration #  8     ecut=   120.00 Ry     beta= 0.70
     Davidson diagonalization with overlap
     ethr =  3.71E-07,  avg # of iterations =  3.5

     total cpu time spent up to now is       13.0 secs

     total energy              =     -17.31760647 Ry
     estimated scf accuracy    <       0.00000601 Ry

     iteration #  9     ecut=   120.00 Ry     beta= 0.70
     Davidson diagonalization with overlap
     ethr =  7.52E-08,  avg # of iterations =  3.8

     total cpu time spent up to now is       14.5 secs

     total energy              =     -17.31760738 Ry
     estimated scf accuracy    <       0.00000409 Ry

     iteration # 10     ecut=   120.00 Ry     beta= 0.70
     Davidson diagonalization with overlap
     ethr =  5.11E-08,  avg # of iterations =  1.3

     total cpu time spent up to now is       15.5 secs

     total energy              =     -17.31760712 Ry
     estimated scf accuracy    <       0.00000257 Ry

     iteration # 11     ecut=   120.00 Ry     beta= 0.70
     Davidson diagonalization with overlap
     ethr =  3.21E-08,  avg # of iterations =  1.5

     total cpu time spent up to now is       16.6 secs

     total energy              =     -17.31760698 Ry
     estimated scf accuracy    <       0.00000146 Ry

     iteration # 12     ecut=   120.00 Ry     beta= 0.70
     Davidson diagonalization with overlap
     ethr =  1.83E-08,  avg # of iterations =  1.8

     total cpu time spent up to now is       17.7 secs

     total energy              =     -17.31760665 Ry
     estimated scf accuracy    <       0.00000072 Ry

     iteration # 13     ecut=   120.00 Ry     beta= 0.70
     Davidson diagonalization with overlap
     ethr =  8.99E-09,  avg # of iterations =  4.9

     total cpu time spent up to now is       19.6 secs

     total energy              =     -17.31760704 Ry
     estimated scf accuracy    <       0.00000022 Ry

     iteration # 14     ecut=   120.00 Ry     beta= 0.70
     Davidson diagonalization with overlap
     ethr =  2.70E-09,  avg # of iterations =  2.5

     total cpu time spent up to now is       21.0 secs

     total energy              =     -17.31760719 Ry
     estimated scf accuracy    <       0.00000002 Ry

     iteration # 15     ecut=   120.00 Ry     beta= 0.70
     Davidson diagonalization with overlap
     ethr =  2.01E-10,  avg # of iterations =  8.0

     total cpu time spent up to now is       23.9 secs

     total energy              =     -17.31760703 Ry
     estimated scf accuracy    <       0.00000046 Ry

     iteration # 16     ecut=   120.00 Ry     beta= 0.70
     Davidson diagonalization with overlap
     ethr =  2.01E-10,  avg # of iterations =  6.8

     total cpu time spent up to now is       26.6 secs

     End of self-consistent calculation

          k = 0.0000 0.0000 0.0000 (  7239 PWs)   bands (ev):

    -8.0572   4.0163   4.0163   4.0163

          k =-0.1250 0.1250-0.1250 (  7198 PWs)   bands (ev):

    -7.9155   2.0576   3.8158   3.8158

          k =-0.2500 0.2500-0.2500 (  7225 PWs)   bands (ev):

    -7.5175   0.0111   3.4332   3.4332

          k =-0.3750 0.3750-0.3750 (  7198 PWs)   bands (ev):

    -6.9901  -1.5771   3.1351   3.1351

          k = 0.5000-0.5000 0.5000 (  7192 PWs)   bands (ev):

    -6.7003  -2.2308   3.0276   3.0276

          k = 0.0000 0.2500 0.0000 (  7183 PWs)   bands (ev):

    -7.8677   1.9831   3.4467   3.4467

          k =-0.1250 0.3750-0.1250 (  7194 PWs)   bands (ev):

    -7.5520   0.4478   2.9760   3.0143

          k =-0.2500 0.5000-0.2500 (  7202 PWs)   bands (ev):

    -7.0520  -1.1475   2.4134   2.7567

          k = 0.6250-0.3750 0.6250 (  7173 PWs)   bands (ev):

    -6.6380  -2.1030   2.0111   2.7512

          k = 0.5000-0.2500 0.5000 (  7184 PWs)   bands (ev):

    -6.7404  -1.8853   1.8901   2.9905

          k = 0.3750-0.1250 0.3750 (  7213 PWs)   bands (ev):

    -7.2323  -0.6546   2.1186   3.3979

          k = 0.2500 0.0000 0.2500 (  7179 PWs)   bands (ev):

    -7.6866   0.9172   2.8135   3.7813

          k = 0.0000 0.5000 0.0000 (  7187 PWs)   bands (ev):

    -7.3271  -0.0251   2.5265   2.5265

          k =-0.1250 0.6250-0.1250 (  7170 PWs)   bands (ev):

    -6.8991  -1.0910   1.8499   2.2308

          k = 0.7500-0.2500 0.7500 (  7181 PWs)   bands (ev):

    -6.4624  -1.9523   1.0706   2.2170

          k = 0.6250-0.1250 0.6250 (  7167 PWs)   bands (ev):

    -6.3983  -2.0504   0.6830   2.4855

          k = 0.5000 0.0000 0.5000 (  7173 PWs)   bands (ev):

    -6.7787  -1.4042   0.9599   2.9547

          k = 0.0000 0.7500 0.0000 (  7171 PWs)   bands (ev):

    -6.5742  -1.6762   1.8703   1.8703

          k = 0.8750-0.1250 0.8750 (  7164 PWs)   bands (ev):

    -6.2362  -2.2088   1.2198   1.7940

          k = 0.7500 0.0000 0.7500 (  7152 PWs)   bands (ev):

    -6.1559  -2.2598   0.5140   2.0198

          k = 0.0000-1.0000 0.0000 (  7102 PWs)   bands (ev):

    -6.1202  -2.4347   1.6400   1.6400

          k =-0.2500 0.5000 0.0000 (  7188 PWs)   bands (ev):

    -7.1774  -0.5451   1.8657   2.8736

          k = 0.6250-0.3750 0.8750 (  7188 PWs)   bands (ev):

    -6.6908  -1.6167   1.2383   2.4846

          k = 0.5000-0.2500 0.7500 (  7202 PWs)   bands (ev):

    -6.4304  -2.1166   1.0615   2.3050

          k = 0.7500-0.2500 1.0000 (  7169 PWs)   bands (ev):

    -6.4932  -1.7816   1.2745   1.8115

          k = 0.6250-0.1250 0.8750 (  7163 PWs)   bands (ev):

    -6.2051  -2.1764   0.6886   1.6479

          k = 0.5000 0.0000 0.7500 (  7172 PWs)   bands (ev):

    -6.3101  -2.0320   0.5536   1.9588

          k =-0.2500-1.0000 0.0000 (  7172 PWs)   bands (ev):

    -6.1041  -2.3508   1.1770   1.2999

          k =-0.5000-1.0000 0.0000 (  7152 PWs)   bands (ev):

    -6.0877  -2.2560   0.7900   1.0282

     highest occupied level (ev):     4.0163

!    total energy              =     -17.31760710 Ry
     estimated scf accuracy    <          2.7E-09 Ry

     The total energy is the sum of the following terms:
     one-electron contribution =       2.27289761 Ry
     hartree contribution      =       1.63665361 Ry
     xc contribution           =      -4.71338266 Ry
     ewald contribution        =     -16.51377566 Ry

     convergence has been achieved in  16 iterations

     Writing all to output data dir ./SCRATCH/gallium_arsenide.save/

     init_run     :      0.95s CPU      1.01s WALL (       1 calls)
     electrons    :     25.23s CPU     25.54s WALL (       1 calls)

     Called by init_run:
     wfcinit      :      0.86s CPU      0.88s WALL (       1 calls)
     potinit      :      0.02s CPU      0.03s WALL (       1 calls)
     hinit0       :      0.06s CPU      0.05s WALL (       1 calls)

     Called by electrons:
     c_bands      :     21.59s CPU     21.81s WALL (      17 calls)
     sum_band     :      3.41s CPU      3.43s WALL (      17 calls)
     v_of_rho     :      0.11s CPU      0.13s WALL (      17 calls)
     mix_rho      :      0.12s CPU      0.15s WALL (      17 calls)

     Called by c_bands:
     init_us_2    :      0.88s CPU      0.69s WALL (    1015 calls)
     init_us_2:cp :      0.88s CPU      0.69s WALL (    1015 calls)
     cegterg      :     20.84s CPU     21.20s WALL (     493 calls)

     Called by *egterg:
     cdiaghg      :      0.03s CPU      0.04s WALL (    1984 calls)
     h_psi        :     20.12s CPU     20.41s WALL (    2042 calls)
     g_psi        :      0.03s CPU      0.09s WALL (    1520 calls)

     Called by h_psi:
     h_psi:calbec :      0.47s CPU      0.44s WALL (    2042 calls)
     vloc_psi     :     19.30s CPU     19.60s WALL (    2042 calls)
     add_vuspsi   :      0.28s CPU      0.30s WALL (    2042 calls)

     General routines
     calbec       :      0.47s CPU      0.43s WALL (    2042 calls)
     fft          :      0.06s CPU      0.10s WALL (      51 calls)
     ffts         :      0.05s CPU      0.04s WALL (      17 calls)
     fftw         :     20.22s CPU     20.76s WALL (   14970 calls)


     PWSCF        :     26.20s CPU     26.59s WALL


   This run was terminated on:  12:18:31  25May2024            

=------------------------------------------------------------------------------=
   JOB DONE.
=------------------------------------------------------------------------------=
