
     Program PWSCF v.7.2 starts on 25May2024 at 12:14:41 

     This program is part of the open-source Quantum ESPRESSO suite
     for quantum simulation of materials; please cite
         "P. Giannozzi et al., J. Phys.:Condens. Matter 21 395502 (2009);
         "P. Giannozzi et al., J. Phys.:Condens. Matter 29 465901 (2017);
         "P. Giannozzi et al., J. Chem. Phys. 152 154105 (2020);
          URL http://www.quantum-espresso.org", 
     in publications or presentations arising from this work. More details at
     http://www.quantum-espresso.org/quote

     Serial version
     8210 MiB available memory on the printing compute node when the environment starts

     Waiting for input...
     Reading input from standard input

     Current dimensions of program PWSCF are:
     Max number of different atomic species (ntypx) = 10
     Max number of k-points (npk) =  40000
     Max angular momentum in pseudopotentials (lmaxx) =  4


     G-vector sticks info
     --------------------
     sticks:   dense  smooth     PW     G-vecs:    dense   smooth      PW
     Sum        1099    1099    313                24045    24045    3839

     Using Slab Decomposition



     bravais-lattice index     =            2
     lattice parameter (alat)  =      10.6829  a.u.
     unit-cell volume          =     304.7951 (a.u.)^3
     number of atoms/cell      =            2
     number of atomic types    =            2
     number of electrons       =         8.00
     number of Kohn-Sham states=            4
     kinetic-energy cutoff     =      70.0000  Ry
     charge density cutoff     =     280.0000  Ry
     scf convergence threshold =      1.0E-08
     mixing beta               =       0.7000
     number of iterations used =            8  plain     mixing
     Exchange-correlation= SLA  PZ   NOGX NOGC
                           (   1   1   0   0   0   0   0)

     celldm(1)=  10.682904  celldm(2)=   0.000000  celldm(3)=   0.000000
     celldm(4)=   0.000000  celldm(5)=   0.000000  celldm(6)=   0.000000

     crystal axes: (cart. coord. in units of alat)
               a(1) = (  -0.500000   0.000000   0.500000 )  
               a(2) = (   0.000000   0.500000   0.500000 )  
               a(3) = (  -0.500000   0.500000   0.000000 )  

     reciprocal axes: (cart. coord. in units 2 pi/alat)
               b(1) = ( -1.000000 -1.000000  1.000000 )  
               b(2) = (  1.000000  1.000000  1.000000 )  
               b(3) = ( -1.000000  1.000000 -1.000000 )  


     PseudoPot. # 1 for Ga read from file:
     /home/paolo/project_labqsm/pseudopotentials/Ga.pz-bhs.UPF
     MD5 check sum: 09b06f4702dea281feaf053846378b49
     Pseudo is Norm-conserving, Zval =  3.0
     Generated by new atomic code, or converted to UPF format
     Using radial grid of  523 points,  2 beta functions with: 
                l(1) =   0
                l(2) =   1

     PseudoPot. # 2 for As read from file:
     /home/paolo/project_labqsm/pseudopotentials/As.pz-bhs.UPF
     MD5 check sum: d67708448008dff3ec15a9356ed645c7
     Pseudo is Norm-conserving, Zval =  5.0
     Generated by new atomic code, or converted to UPF format
     Using radial grid of  525 points,  2 beta functions with: 
                l(1) =   0
                l(2) =   1

     atomic species   valence    mass     pseudopotential
        Ga             3.00    69.72300     Ga( 1.00)
        As             5.00    74.92200     As( 1.00)

     24 Sym. Ops. (no inversion) found



   Cartesian axes

     site n.     atom                  positions (alat units)
         1           Ga  tau(   1) = (   0.0000000   0.0000000   0.0000000  )
         2           As  tau(   2) = (   0.2500000   0.2500000   0.2500000  )

     number of k points=    29
                       cart. coord. in units 2pi/alat
        k(    1) = (   0.0000000   0.0000000   0.0000000), wk =   0.0039062
        k(    2) = (  -0.1250000   0.1250000  -0.1250000), wk =   0.0312500
        k(    3) = (  -0.2500000   0.2500000  -0.2500000), wk =   0.0312500
        k(    4) = (  -0.3750000   0.3750000  -0.3750000), wk =   0.0312500
        k(    5) = (   0.5000000  -0.5000000   0.5000000), wk =   0.0156250
        k(    6) = (   0.0000000   0.2500000   0.0000000), wk =   0.0234375
        k(    7) = (  -0.1250000   0.3750000  -0.1250000), wk =   0.0937500
        k(    8) = (  -0.2500000   0.5000000  -0.2500000), wk =   0.0937500
        k(    9) = (   0.6250000  -0.3750000   0.6250000), wk =   0.0937500
        k(   10) = (   0.5000000  -0.2500000   0.5000000), wk =   0.0937500
        k(   11) = (   0.3750000  -0.1250000   0.3750000), wk =   0.0937500
        k(   12) = (   0.2500000   0.0000000   0.2500000), wk =   0.0468750
        k(   13) = (   0.0000000   0.5000000   0.0000000), wk =   0.0234375
        k(   14) = (  -0.1250000   0.6250000  -0.1250000), wk =   0.0937500
        k(   15) = (   0.7500000  -0.2500000   0.7500000), wk =   0.0937500
        k(   16) = (   0.6250000  -0.1250000   0.6250000), wk =   0.0937500
        k(   17) = (   0.5000000   0.0000000   0.5000000), wk =   0.0468750
        k(   18) = (   0.0000000   0.7500000   0.0000000), wk =   0.0234375
        k(   19) = (   0.8750000  -0.1250000   0.8750000), wk =   0.0937500
        k(   20) = (   0.7500000   0.0000000   0.7500000), wk =   0.0468750
        k(   21) = (   0.0000000  -1.0000000   0.0000000), wk =   0.0117188
        k(   22) = (  -0.2500000   0.5000000   0.0000000), wk =   0.0937500
        k(   23) = (   0.6250000  -0.3750000   0.8750000), wk =   0.1875000
        k(   24) = (   0.5000000  -0.2500000   0.7500000), wk =   0.0937500
        k(   25) = (   0.7500000  -0.2500000   1.0000000), wk =   0.0937500
        k(   26) = (   0.6250000  -0.1250000   0.8750000), wk =   0.1875000
        k(   27) = (   0.5000000   0.0000000   0.7500000), wk =   0.0937500
        k(   28) = (  -0.2500000  -1.0000000   0.0000000), wk =   0.0468750
        k(   29) = (  -0.5000000  -1.0000000   0.0000000), wk =   0.0234375

     Dense  grid:    24045 G-vectors     FFT dimensions: (  45,  45,  45)

     Estimated max dynamical RAM per process >      23.85 MB

     Initial potential from superposition of free atoms

     starting charge       7.9979, renormalised to       8.0000
     Starting wfcs are    8 randomized atomic wfcs

     total cpu time spent up to now is        0.5 secs

     Self-consistent Calculation

     iteration #  1     ecut=    70.00 Ry     beta= 0.70
     Davidson diagonalization with overlap
     ethr =  1.00E-02,  avg # of iterations =  1.4

     Threshold (ethr) on eigenvalues was too large:
     Diagonalizing with lowered threshold

     Davidson diagonalization with overlap
     ethr =  4.64E-04,  avg # of iterations =  3.2

     total cpu time spent up to now is        1.8 secs

     total energy              =     -17.31727029 Ry
     estimated scf accuracy    <       0.04136428 Ry

     iteration #  2     ecut=    70.00 Ry     beta= 0.70
     Davidson diagonalization with overlap
     ethr =  5.17E-04,  avg # of iterations =  2.0

     total cpu time spent up to now is        2.4 secs

     total energy              =     -17.32363419 Ry
     estimated scf accuracy    <       0.00271045 Ry

     iteration #  3     ecut=    70.00 Ry     beta= 0.70
     Davidson diagonalization with overlap
     ethr =  3.39E-05,  avg # of iterations =  2.8

     total cpu time spent up to now is        3.1 secs

     total energy              =     -17.32422458 Ry
     estimated scf accuracy    <       0.00041913 Ry

     iteration #  4     ecut=    70.00 Ry     beta= 0.70
     Davidson diagonalization with overlap
     ethr =  5.24E-06,  avg # of iterations =  3.6

     total cpu time spent up to now is        3.9 secs

     total energy              =     -17.32447654 Ry
     estimated scf accuracy    <       0.00016457 Ry

     iteration #  5     ecut=    70.00 Ry     beta= 0.70
     Davidson diagonalization with overlap
     ethr =  2.06E-06,  avg # of iterations =  1.5

     total cpu time spent up to now is        4.4 secs

     total energy              =     -17.32438193 Ry
     estimated scf accuracy    <       0.00014320 Ry

     iteration #  6     ecut=    70.00 Ry     beta= 0.70
     Davidson diagonalization with overlap
     ethr =  1.79E-06,  avg # of iterations =  3.3

     total cpu time spent up to now is        5.2 secs

     total energy              =     -17.32444365 Ry
     estimated scf accuracy    <       0.00009505 Ry

     iteration #  7     ecut=    70.00 Ry     beta= 0.70
     Davidson diagonalization with overlap
     ethr =  1.19E-06,  avg # of iterations =  1.0

     total cpu time spent up to now is        5.7 secs

     total energy              =     -17.32445051 Ry
     estimated scf accuracy    <       0.00003744 Ry

     iteration #  8     ecut=    70.00 Ry     beta= 0.70
     Davidson diagonalization with overlap
     ethr =  4.68E-07,  avg # of iterations =  1.2

     total cpu time spent up to now is        6.2 secs

     total energy              =     -17.32444932 Ry
     estimated scf accuracy    <       0.00004394 Ry

     iteration #  9     ecut=    70.00 Ry     beta= 0.70
     Davidson diagonalization with overlap
     ethr =  4.68E-07,  avg # of iterations =  1.0

     total cpu time spent up to now is        6.7 secs

     total energy              =     -17.32444954 Ry
     estimated scf accuracy    <       0.00003919 Ry

     iteration # 10     ecut=    70.00 Ry     beta= 0.70
     Davidson diagonalization with overlap
     ethr =  4.68E-07,  avg # of iterations =  1.0

     total cpu time spent up to now is        7.2 secs

     total energy              =     -17.32442910 Ry
     estimated scf accuracy    <       0.00003926 Ry

     iteration # 11     ecut=    70.00 Ry     beta= 0.70
     Davidson diagonalization with overlap
     ethr =  4.68E-07,  avg # of iterations =  2.0

     total cpu time spent up to now is        7.8 secs

     total energy              =     -17.32443349 Ry
     estimated scf accuracy    <       0.00000149 Ry

     iteration # 12     ecut=    70.00 Ry     beta= 0.70
     Davidson diagonalization with overlap
     ethr =  1.86E-08,  avg # of iterations =  6.4

     total cpu time spent up to now is        9.0 secs

     total energy              =     -17.32443622 Ry
     estimated scf accuracy    <       0.00000074 Ry

     iteration # 13     ecut=    70.00 Ry     beta= 0.70
     Davidson diagonalization with overlap
     ethr =  9.24E-09,  avg # of iterations =  1.9

     total cpu time spent up to now is        9.5 secs

     total energy              =     -17.32443600 Ry
     estimated scf accuracy    <       0.00000124 Ry

     iteration # 14     ecut=    70.00 Ry     beta= 0.70
     Davidson diagonalization with overlap
     ethr =  9.24E-09,  avg # of iterations =  1.0

     total cpu time spent up to now is       10.0 secs

     total energy              =     -17.32443601 Ry
     estimated scf accuracy    <       0.00000065 Ry

     iteration # 15     ecut=    70.00 Ry     beta= 0.70
     Davidson diagonalization with overlap
     ethr =  8.12E-09,  avg # of iterations =  1.0

     total cpu time spent up to now is       10.5 secs

     total energy              =     -17.32443984 Ry
     estimated scf accuracy    <       0.00000060 Ry

     iteration # 16     ecut=    70.00 Ry     beta= 0.70
     Davidson diagonalization with overlap
     ethr =  7.48E-09,  avg # of iterations =  6.2

     total cpu time spent up to now is       11.7 secs

     total energy              =     -17.32443269 Ry
     estimated scf accuracy    <       0.00001608 Ry

     iteration # 17     ecut=    70.00 Ry     beta= 0.70
     Davidson diagonalization with overlap
     ethr =  7.48E-09,  avg # of iterations =  7.0

     total cpu time spent up to now is       13.0 secs

     total energy              =     -17.32443582 Ry
     estimated scf accuracy    <       0.00000003 Ry

     iteration # 18     ecut=    70.00 Ry     beta= 0.70
     Davidson diagonalization with overlap
     ethr =  4.33E-10,  avg # of iterations =  2.7

     total cpu time spent up to now is       13.8 secs

     End of self-consistent calculation

          k = 0.0000 0.0000 0.0000 (  2975 PWs)   bands (ev):

    -7.8530   4.5861   4.5861   4.5861

          k =-0.1250 0.1250-0.1250 (  3008 PWs)   bands (ev):

    -7.7008   2.6754   4.3676   4.3676

          k =-0.2500 0.2500-0.2500 (  2989 PWs)   bands (ev):

    -7.2703   0.4841   3.9559   3.9559

          k =-0.3750 0.3750-0.3750 (  3004 PWs)   bands (ev):

    -6.6897  -1.2318   3.6382   3.6382

          k = 0.5000-0.5000 0.5000 (  2998 PWs)   bands (ev):

    -6.3622  -1.9485   3.5242   3.5242

          k = 0.0000 0.2500 0.0000 (  2998 PWs)   bands (ev):

    -7.6494   2.6459   3.9631   3.9631

          k =-0.1250 0.3750-0.1250 (  2988 PWs)   bands (ev):

    -7.3086   0.9865   3.4752   3.4983

          k =-0.2500 0.5000-0.2500 (  2997 PWs)   bands (ev):

    -6.7607  -0.7470   2.8868   3.2254

          k = 0.6250-0.3750 0.6250 (  3015 PWs)   bands (ev):

    -6.2954  -1.7970   2.4608   3.2230

          k = 0.5000-0.2500 0.5000 (  3019 PWs)   bands (ev):

    -6.4117  -1.5565   2.3241   3.4822

          k = 0.3750-0.1250 0.3750 (  3012 PWs)   bands (ev):

    -6.9593  -0.2106   2.5499   3.9216

          k = 0.2500 0.0000 0.2500 (  3012 PWs)   bands (ev):

    -7.4541   1.4841   3.2774   4.3353

          k = 0.0000 0.5000 0.0000 (  3042 PWs)   bands (ev):

    -7.0650   0.5182   2.9740   2.9740

          k =-0.1250 0.6250-0.1250 (  3011 PWs)   bands (ev):

    -6.5953  -0.6384   2.2521   2.6593

          k = 0.7500-0.2500 0.7500 (  3018 PWs)   bands (ev):

    -6.1037  -1.5923   1.4232   2.6468

          k = 0.6250-0.1250 0.6250 (  3027 PWs)   bands (ev):

    -6.0287  -1.7047   1.0051   2.9362

          k = 0.5000 0.0000 0.5000 (  3008 PWs)   bands (ev):

    -6.4585  -0.9925   1.2928   3.4419

          k = 0.0000 0.7500 0.0000 (  3018 PWs)   bands (ev):

    -6.2353  -1.2669   2.2744   2.2744

          k = 0.8750-0.1250 0.8750 (  3017 PWs)   bands (ev):

    -5.8501  -1.8571   1.5686   2.1939

          k = 0.7500 0.0000 0.7500 (  3032 PWs)   bands (ev):

    -5.7543  -1.9163   0.8033   2.4359

          k = 0.0000-1.0000 0.0000 (  3026 PWs)   bands (ev):

    -5.7165  -2.1115   2.0295   2.0295

          k =-0.2500 0.5000 0.0000 (  3007 PWs)   bands (ev):

    -6.9004  -0.0609   2.2630   3.3555

          k = 0.6250-0.3750 0.8750 (  3020 PWs)   bands (ev):

    -6.3604  -1.2313   1.6065   2.9315

          k = 0.5000-0.2500 0.7500 (  3026 PWs)   bands (ev):

    -6.0638  -1.7898   1.4288   2.7354

          k = 0.7500-0.2500 1.0000 (  3011 PWs)   bands (ev):

    -6.1419  -1.3852   1.6305   2.2024

          k = 0.6250-0.1250 0.8750 (  3024 PWs)   bands (ev):

    -5.8111  -1.8240   0.9969   2.0253

          k = 0.5000 0.0000 0.7500 (  3030 PWs)   bands (ev):

    -5.9306  -1.6659   0.8511   2.3613

          k =-0.2500-1.0000 0.0000 (  3016 PWs)   bands (ev):

    -5.6964  -2.0157   1.5245   1.6507

          k =-0.5000-1.0000 0.0000 (  3028 PWs)   bands (ev):

    -5.6760  -1.9058   1.1014   1.3510

     highest occupied level (ev):     4.5861

!    total energy              =     -17.32443583 Ry
     estimated scf accuracy    <          1.4E-09 Ry

     The total energy is the sum of the following terms:
     one-electron contribution =       2.72671026 Ry
     hartree contribution      =       1.55981893 Ry
     xc contribution           =      -4.76691385 Ry
     ewald contribution        =     -16.84405117 Ry

     convergence has been achieved in  18 iterations

     Writing all to output data dir ./SCRATCH/gallium_arsenide.save/

     init_run     :      0.44s CPU      0.49s WALL (       1 calls)
     electrons    :     12.95s CPU     13.24s WALL (       1 calls)

     Called by init_run:
     wfcinit      :      0.41s CPU      0.42s WALL (       1 calls)
     potinit      :      0.00s CPU      0.02s WALL (       1 calls)
     hinit0       :      0.03s CPU      0.04s WALL (       1 calls)

     Called by electrons:
     c_bands      :     11.03s CPU     11.26s WALL (      19 calls)
     sum_band     :      1.83s CPU      1.83s WALL (      19 calls)
     v_of_rho     :      0.05s CPU      0.08s WALL (      19 calls)
     mix_rho      :      0.05s CPU      0.07s WALL (      19 calls)

     Called by c_bands:
     init_us_2    :      0.27s CPU      0.32s WALL (    1131 calls)
     init_us_2:cp :      0.27s CPU      0.32s WALL (    1131 calls)
     cegterg      :     10.83s CPU     10.94s WALL (     551 calls)

     Called by *egterg:
     cdiaghg      :      0.03s CPU      0.03s WALL (    1982 calls)
     h_psi        :     10.45s CPU     10.60s WALL (    2040 calls)
     g_psi        :      0.02s CPU      0.04s WALL (    1460 calls)

     Called by h_psi:
     h_psi:calbec :      0.20s CPU      0.19s WALL (    2040 calls)
     vloc_psi     :     10.14s CPU     10.24s WALL (    2040 calls)
     add_vuspsi   :      0.08s CPU      0.14s WALL (    2040 calls)

     General routines
     calbec       :      0.20s CPU      0.18s WALL (    2040 calls)
     fft          :      0.03s CPU      0.06s WALL (      57 calls)
     ffts         :      0.02s CPU      0.02s WALL (      19 calls)
     fftw         :     10.77s CPU     10.84s WALL (   16142 calls)


     PWSCF        :     13.41s CPU     13.77s WALL


   This run was terminated on:  12:14:55  25May2024            

=------------------------------------------------------------------------------=
   JOB DONE.
=------------------------------------------------------------------------------=
