
     Program PWSCF v.7.2 starts on 11Jun2024 at 11:15:53 

     This program is part of the open-source Quantum ESPRESSO suite
     for quantum simulation of materials; please cite
         "P. Giannozzi et al., J. Phys.:Condens. Matter 21 395502 (2009);
         "P. Giannozzi et al., J. Phys.:Condens. Matter 29 465901 (2017);
         "P. Giannozzi et al., J. Chem. Phys. 152 154105 (2020);
          URL http://www.quantum-espresso.org", 
     in publications or presentations arising from this work. More details at
     http://www.quantum-espresso.org/quote

     Serial version
     8906 MiB available memory on the printing compute node when the environment starts

     Waiting for input...
     Reading input from standard input

     Current dimensions of program PWSCF are:
     Max number of different atomic species (ntypx) = 10
     Max number of k-points (npk) =  40000
     Max angular momentum in pseudopotentials (lmaxx) =  4
     file Ga.pbe-dn-rrkjus_psl.0.2.UPF: wavefunction(s)  4S 3D renormalized


     G-vector sticks info
     --------------------
     sticks:   dense  smooth     PW     G-vecs:    dense   smooth      PW
     Sum        1639     649    199                43799    11017    1917

     Using Slab Decomposition



     bravais-lattice index     =            2
     lattice parameter (alat)  =      10.8966  a.u.
     unit-cell volume          =     323.4510 (a.u.)^3
     number of atoms/cell      =            2
     number of atomic types    =            2
     number of electrons       =        18.00
     number of Kohn-Sham states=            9
     kinetic-energy cutoff     =      40.0000  Ry
     charge density cutoff     =     400.0000  Ry
     scf convergence threshold =      1.0E-08
     mixing beta               =       0.7000
     number of iterations used =            8  plain     mixing
     Exchange-correlation= PBE
                           (   1   4   3   4   0   0   0)

     celldm(1)=  10.896563  celldm(2)=   0.000000  celldm(3)=   0.000000
     celldm(4)=   0.000000  celldm(5)=   0.000000  celldm(6)=   0.000000

     crystal axes: (cart. coord. in units of alat)
               a(1) = (  -0.500000   0.000000   0.500000 )  
               a(2) = (   0.000000   0.500000   0.500000 )  
               a(3) = (  -0.500000   0.500000   0.000000 )  

     reciprocal axes: (cart. coord. in units 2 pi/alat)
               b(1) = ( -1.000000 -1.000000  1.000000 )  
               b(2) = (  1.000000  1.000000  1.000000 )  
               b(3) = ( -1.000000  1.000000 -1.000000 )  


     PseudoPot. # 1 for Ga read from file:
     /home/paolo/project_labqsm/pseudopotentials/Ga.pbe-dn-rrkjus_psl.0.2.UPF
     MD5 check sum: ffdfce4fe0c152725d7fa40f12f9e9e5
     Pseudo is Ultrasoft + core correction, Zval = 13.0
     Generated using "atomic" code by A. Dal Corso  v.5.0.2 svn rev. 9415
     Using radial grid of 1205 points,  6 beta functions with: 
                l(1) =   0
                l(2) =   0
                l(3) =   1
                l(4) =   1
                l(5) =   2
                l(6) =   2
     Q(r) pseudized with 0 coefficients 


     PseudoPot. # 2 for As read from file:
     /home/paolo/project_labqsm/pseudopotentials/As.pbe-n-rrkjus_psl.0.2.UPF
     MD5 check sum: f98050c7212d27f7cb33035312670de9
     Pseudo is Ultrasoft + core correction, Zval =  5.0
     Generated using "atomic" code by A. Dal Corso  v.5.0.2 svn rev. 9415
     Using radial grid of 1209 points,  4 beta functions with: 
                l(1) =   0
                l(2) =   0
                l(3) =   1
                l(4) =   1
     Q(r) pseudized with 0 coefficients 


     atomic species   valence    mass     pseudopotential
        Ga            13.00    69.72300     Ga( 1.00)
        As             5.00    74.92200     As( 1.00)

     24 Sym. Ops. (no inversion) found



   Cartesian axes

     site n.     atom                  positions (alat units)
         1           Ga  tau(   1) = (   0.0000000   0.0000000   0.0000000  )
         2           As  tau(   2) = (   0.2500000   0.2500000   0.2500000  )

     number of k points=    29
                       cart. coord. in units 2pi/alat
        k(    1) = (   0.0000000   0.0000000   0.0000000), wk =   0.0039062
        k(    2) = (  -0.1250000   0.1250000  -0.1250000), wk =   0.0312500
        k(    3) = (  -0.2500000   0.2500000  -0.2500000), wk =   0.0312500
        k(    4) = (  -0.3750000   0.3750000  -0.3750000), wk =   0.0312500
        k(    5) = (   0.5000000  -0.5000000   0.5000000), wk =   0.0156250
        k(    6) = (   0.0000000   0.2500000   0.0000000), wk =   0.0234375
        k(    7) = (  -0.1250000   0.3750000  -0.1250000), wk =   0.0937500
        k(    8) = (  -0.2500000   0.5000000  -0.2500000), wk =   0.0937500
        k(    9) = (   0.6250000  -0.3750000   0.6250000), wk =   0.0937500
        k(   10) = (   0.5000000  -0.2500000   0.5000000), wk =   0.0937500
        k(   11) = (   0.3750000  -0.1250000   0.3750000), wk =   0.0937500
        k(   12) = (   0.2500000   0.0000000   0.2500000), wk =   0.0468750
        k(   13) = (   0.0000000   0.5000000   0.0000000), wk =   0.0234375
        k(   14) = (  -0.1250000   0.6250000  -0.1250000), wk =   0.0937500
        k(   15) = (   0.7500000  -0.2500000   0.7500000), wk =   0.0937500
        k(   16) = (   0.6250000  -0.1250000   0.6250000), wk =   0.0937500
        k(   17) = (   0.5000000   0.0000000   0.5000000), wk =   0.0468750
        k(   18) = (   0.0000000   0.7500000   0.0000000), wk =   0.0234375
        k(   19) = (   0.8750000  -0.1250000   0.8750000), wk =   0.0937500
        k(   20) = (   0.7500000   0.0000000   0.7500000), wk =   0.0468750
        k(   21) = (   0.0000000  -1.0000000   0.0000000), wk =   0.0117188
        k(   22) = (  -0.2500000   0.5000000   0.0000000), wk =   0.0937500
        k(   23) = (   0.6250000  -0.3750000   0.8750000), wk =   0.1875000
        k(   24) = (   0.5000000  -0.2500000   0.7500000), wk =   0.0937500
        k(   25) = (   0.7500000  -0.2500000   1.0000000), wk =   0.0937500
        k(   26) = (   0.6250000  -0.1250000   0.8750000), wk =   0.1875000
        k(   27) = (   0.5000000   0.0000000   0.7500000), wk =   0.0937500
        k(   28) = (  -0.2500000  -1.0000000   0.0000000), wk =   0.0468750
        k(   29) = (  -0.5000000  -1.0000000   0.0000000), wk =   0.0234375

     Dense  grid:    43799 G-vectors     FFT dimensions: (  50,  50,  50)

     Smooth grid:    11017 G-vectors     FFT dimensions: (  32,  32,  32)

     Estimated max dynamical RAM per process >     162.31 MB

     Initial potential from superposition of free atoms

     starting charge      17.9968, renormalised to      18.0000
     Starting wfcs are   13 randomized atomic wfcs

     total cpu time spent up to now is        1.1 secs

     Self-consistent Calculation

     iteration #  1     ecut=    40.00 Ry     beta= 0.70
     Davidson diagonalization with overlap
     ethr =  1.00E-02,  avg # of iterations =  1.3

     Threshold (ethr) on eigenvalues was too large:
     Diagonalizing with lowered threshold

     Davidson diagonalization with overlap
     ethr =  2.80E-04,  avg # of iterations =  2.0

     total cpu time spent up to now is        2.7 secs

     total energy              =    -191.01106222 Ry
     estimated scf accuracy    <       0.04896485 Ry

     iteration #  2     ecut=    40.00 Ry     beta= 0.70
     Davidson diagonalization with overlap
     ethr =  2.72E-04,  avg # of iterations =  2.5

     total cpu time spent up to now is        3.7 secs

     total energy              =    -191.02129772 Ry
     estimated scf accuracy    <       0.01070435 Ry

     iteration #  3     ecut=    40.00 Ry     beta= 0.70
     Davidson diagonalization with overlap
     ethr =  5.95E-05,  avg # of iterations =  2.0

     total cpu time spent up to now is        4.8 secs

     total energy              =    -191.02322997 Ry
     estimated scf accuracy    <       0.00042862 Ry

     iteration #  4     ecut=    40.00 Ry     beta= 0.70
     Davidson diagonalization with overlap
     ethr =  2.38E-06,  avg # of iterations =  3.3

     total cpu time spent up to now is        5.9 secs

     total energy              =    -191.02332632 Ry
     estimated scf accuracy    <       0.00010564 Ry

     iteration #  5     ecut=    40.00 Ry     beta= 0.70
     Davidson diagonalization with overlap
     ethr =  5.87E-07,  avg # of iterations =  2.2

     total cpu time spent up to now is        6.8 secs

     total energy              =    -191.02332068 Ry
     estimated scf accuracy    <       0.00001923 Ry

     iteration #  6     ecut=    40.00 Ry     beta= 0.70
     Davidson diagonalization with overlap
     ethr =  1.07E-07,  avg # of iterations =  3.3

     total cpu time spent up to now is        7.9 secs

     total energy              =    -191.02332835 Ry
     estimated scf accuracy    <       0.00001682 Ry

     iteration #  7     ecut=    40.00 Ry     beta= 0.70
     Davidson diagonalization with overlap
     ethr =  9.34E-08,  avg # of iterations =  2.0

     total cpu time spent up to now is        8.9 secs

     total energy              =    -191.02333069 Ry
     estimated scf accuracy    <       0.00000023 Ry

     iteration #  8     ecut=    40.00 Ry     beta= 0.70
     Davidson diagonalization with overlap
     ethr =  1.30E-09,  avg # of iterations =  5.0

     total cpu time spent up to now is       10.1 secs

     total energy              =    -191.02333087 Ry
     estimated scf accuracy    <       0.00000044 Ry

     iteration #  9     ecut=    40.00 Ry     beta= 0.70
     Davidson diagonalization with overlap
     ethr =  1.30E-09,  avg # of iterations =  2.4

     total cpu time spent up to now is       11.1 secs

     total energy              =    -191.02333090 Ry
     estimated scf accuracy    <       0.00000003 Ry

     iteration # 10     ecut=    40.00 Ry     beta= 0.70
     Davidson diagonalization with overlap
     ethr =  1.57E-10,  avg # of iterations =  3.8

     total cpu time spent up to now is       12.2 secs

     total energy              =    -191.02333092 Ry
     estimated scf accuracy    <       0.00000001 Ry

     iteration # 11     ecut=    40.00 Ry     beta= 0.70
     Davidson diagonalization with overlap
     ethr =  7.68E-11,  avg # of iterations =  2.0

     total cpu time spent up to now is       13.2 secs

     End of self-consistent calculation

          k = 0.0000 0.0000 0.0000 (  1411 PWs)   bands (ev):

    -8.6276  -8.6276  -8.6276  -8.5622  -8.5622  -6.2475   6.0758   6.0758
     6.0758

          k =-0.1250 0.1250-0.1250 (  1393 PWs)   bands (ev):

    -8.6373  -8.6246  -8.6246  -8.5621  -8.5621  -6.0808   4.0704   5.8599
     5.8599

          k =-0.2500 0.2500-0.2500 (  1378 PWs)   bands (ev):

    -8.6596  -8.6182  -8.6182  -8.5613  -8.5613  -5.6165   2.0386   5.4509
     5.4509

          k =-0.3750 0.3750-0.3750 (  1392 PWs)   bands (ev):

    -8.6806  -8.6131  -8.6131  -8.5596  -8.5596  -5.0030   0.4214   5.1329
     5.1329

          k = 0.5000-0.5000 0.5000 (  1380 PWs)   bands (ev):

    -8.6884  -8.6115  -8.6115  -8.5582  -8.5582  -4.6624  -0.2626   5.0182
     5.0182

          k = 0.0000 0.2500 0.0000 (  1395 PWs)   bands (ev):

    -8.6436  -8.6219  -8.6219  -8.5642  -8.5602  -6.0251   3.9990   5.4758
     5.4758

          k =-0.1250 0.3750-0.1250 (  1380 PWs)   bands (ev):

    -8.6614  -8.6164  -8.6151  -8.5658  -8.5586  -5.6579   2.4805   4.9852
     5.0219

          k =-0.2500 0.5000-0.2500 (  1382 PWs)   bands (ev):

    -8.6802  -8.6119  -8.6095  -8.5651  -8.5573  -5.0778   0.8642   4.4135
     4.7478

          k = 0.6250-0.3750 0.6250 (  1389 PWs)   bands (ev):

    -8.6907  -8.6097  -8.6076  -8.5620  -8.5577  -4.5931  -0.1321   4.0076
     4.7362

          k = 0.5000-0.2500 0.5000 (  1388 PWs)   bands (ev):

    -8.6877  -8.6099  -8.6093  -8.5606  -8.5597  -4.7135   0.0971   3.8858
     4.9822

          k = 0.3750-0.1250 0.3750 (  1378 PWs)   bands (ev):

    -8.6722  -8.6146  -8.6127  -8.5632  -8.5595  -5.2865   1.3673   4.1178
     5.4081

          k = 0.2500 0.0000 0.2500 (  1376 PWs)   bands (ev):

    -8.6517  -8.6212  -8.6183  -8.5635  -8.5604  -5.8137   2.9462   4.8256
     5.8157

          k = 0.0000 0.5000 0.0000 (  1387 PWs)   bands (ev):

    -8.6771  -8.6077  -8.6077  -8.5709  -8.5560  -5.3997   2.0155   4.5171
     4.5171

          k =-0.1250 0.6250-0.1250 (  1385 PWs)   bands (ev):

    -8.6919  -8.6026  -8.6011  -8.5729  -8.5544  -4.9062   0.9296   3.8373
     4.2075

          k = 0.7500-0.2500 0.7500 (  1383 PWs)   bands (ev):

    -8.6992  -8.6026  -8.5986  -8.5701  -8.5554  -4.3953   0.0220   3.0663
     4.1890

          k = 0.6250-0.1250 0.6250 (  1384 PWs)   bands (ev):

    -8.6970  -8.6050  -8.6005  -8.5651  -8.5593  -4.3171  -0.0890   2.6821
     4.4635

          k = 0.5000 0.0000 0.5000 (  1368 PWs)   bands (ev):

    -8.6865  -8.6081  -8.6067  -8.5628  -8.5609  -4.7619   0.5950   2.9575
     4.9474

          k = 0.0000 0.7500 0.0000 (  1371 PWs)   bands (ev):

    -8.7056  -8.5933  -8.5933  -8.5782  -8.5517  -4.5333   0.3281   3.8341
     3.8341

          k = 0.8750-0.1250 0.8750 (  1376 PWs)   bands (ev):

    -8.7110  -8.5925  -8.5904  -8.5777  -8.5520  -4.1356  -0.2445   3.1949
     3.7532

          k = 0.7500 0.0000 0.7500 (  1392 PWs)   bands (ev):

    -8.7066  -8.5983  -8.5930  -8.5725  -8.5556  -4.0352  -0.3158   2.5061
     3.9847

          k = 0.0000-1.0000 0.0000 (  1362 PWs)   bands (ev):

    -8.7163  -8.5872  -8.5872  -8.5812  -8.5501  -3.9996  -0.4831   3.5940
     3.5940

          k =-0.2500 0.5000 0.0000 (  1371 PWs)   bands (ev):

    -8.6778  -8.6106  -8.6081  -8.5679  -8.5570  -5.2251   1.4829   3.8602
     4.8721

          k = 0.6250-0.3750 0.8750 (  1385 PWs)   bands (ev):

    -8.6911  -8.6077  -8.6028  -8.5669  -8.5573  -4.6604   0.3754   3.2342
     4.4724

          k = 0.5000-0.2500 0.7500 (  1382 PWs)   bands (ev):

    -8.6961  -8.6070  -8.6007  -8.5648  -8.5583  -4.3535  -0.1558   3.0606
     4.2877

          k = 0.7500-0.2500 1.0000 (  1377 PWs)   bands (ev):

    -8.7020  -8.5996  -8.5948  -8.5738  -8.5539  -4.4353   0.2070   3.2580
     3.7887

          k = 0.6250-0.1250 0.8750 (  1386 PWs)   bands (ev):

    -8.7041  -8.6017  -8.5928  -8.5709  -8.5564  -4.0932  -0.2274   2.6836
     3.6248

          k = 0.5000 0.0000 0.7500 (  1375 PWs)   bands (ev):

    -8.6996  -8.6048  -8.5956  -8.5675  -8.5585  -4.2158  -0.0739   2.5511
     3.9409

          k =-0.2500-1.0000 0.0000 (  1382 PWs)   bands (ev):

    -8.7112  -8.5946  -8.5894  -8.5761  -8.5531  -3.9767  -0.4070   3.1667
     3.2603

          k =-0.5000-1.0000 0.0000 (  1384 PWs)   bands (ev):

    -8.7052  -8.6024  -8.5905  -8.5702  -8.5576  -3.9535  -0.3220   2.8064
     2.9900

     highest occupied level (ev):     6.0758

!    total energy              =    -191.02333092 Ry
     estimated scf accuracy    <          5.0E-10 Ry

     The total energy is the sum of the following terms:
     one-electron contribution =    -114.71799259 Ry
     hartree contribution      =      72.74886381 Ry
     xc contribution           =     -57.85893639 Ry
     ewald contribution        =     -91.19526574 Ry

     convergence has been achieved in  11 iterations

     Writing all to output data dir ./SCRATCH/gallium_arsenide.save/

     init_run     :      0.83s CPU      1.01s WALL (       1 calls)
     electrons    :      9.53s CPU     12.06s WALL (       1 calls)

     Called by init_run:
     wfcinit      :      0.27s CPU      0.28s WALL (       1 calls)
     potinit      :      0.03s CPU      0.08s WALL (       1 calls)
     hinit0       :      0.41s CPU      0.41s WALL (       1 calls)

     Called by electrons:
     c_bands      :      6.20s CPU      6.34s WALL (      12 calls)
     sum_band     :      2.00s CPU      3.22s WALL (      12 calls)
     v_of_rho     :      0.48s CPU      0.49s WALL (      12 calls)
     newd         :      0.88s CPU      2.19s WALL (      12 calls)
     mix_rho      :      0.02s CPU      0.04s WALL (      12 calls)

     Called by c_bands:
     init_us_2    :      0.22s CPU      0.21s WALL (     725 calls)
     init_us_2:cp :      0.22s CPU      0.21s WALL (     725 calls)
     cegterg      :      5.92s CPU      5.96s WALL (     348 calls)

     Called by *egterg:
     cdiaghg      :      0.06s CPU      0.08s WALL (    1249 calls)
     h_psi        :      5.14s CPU      5.02s WALL (    1307 calls)
     s_psi        :      0.22s CPU      0.25s WALL (    1307 calls)
     g_psi        :      0.00s CPU      0.02s WALL (     930 calls)

     Called by h_psi:
     h_psi:calbec :      0.33s CPU      0.35s WALL (    1307 calls)
     vloc_psi     :      4.50s CPU      4.39s WALL (    1307 calls)
     add_vuspsi   :      0.30s CPU      0.25s WALL (    1307 calls)

     General routines
     calbec       :      0.42s CPU      0.46s WALL (    1655 calls)
     fft          :      0.14s CPU      0.26s WALL (     155 calls)
     ffts         :      0.00s CPU      0.01s WALL (      24 calls)
     fftw         :      4.47s CPU      4.31s WALL (   21084 calls)
     interpolate  :      0.02s CPU      0.03s WALL (      12 calls)


     PWSCF        :     10.48s CPU     13.18s WALL


   This run was terminated on:  11:16: 7  11Jun2024            

=------------------------------------------------------------------------------=
   JOB DONE.
=------------------------------------------------------------------------------=
