
     Program PWSCF v.7.2 starts on 11Jun2024 at 11:15: 8 

     This program is part of the open-source Quantum ESPRESSO suite
     for quantum simulation of materials; please cite
         "P. Giannozzi et al., J. Phys.:Condens. Matter 21 395502 (2009);
         "P. Giannozzi et al., J. Phys.:Condens. Matter 29 465901 (2017);
         "P. Giannozzi et al., J. Chem. Phys. 152 154105 (2020);
          URL http://www.quantum-espresso.org", 
     in publications or presentations arising from this work. More details at
     http://www.quantum-espresso.org/quote

     Serial version
     8887 MiB available memory on the printing compute node when the environment starts

     Waiting for input...
     Reading input from standard input

     Current dimensions of program PWSCF are:
     Max number of different atomic species (ntypx) = 10
     Max number of k-points (npk) =  40000
     Max angular momentum in pseudopotentials (lmaxx) =  4
     file Ga.pbe-dn-rrkjus_psl.0.2.UPF: wavefunction(s)  4S 3D renormalized


     G-vector sticks info
     --------------------
     sticks:   dense  smooth     PW     G-vecs:    dense   smooth      PW
     Sum        3121    1261    367               116125    29603    4645

     Using Slab Decomposition



     bravais-lattice index     =            2
     lattice parameter (alat)  =      10.6829  a.u.
     unit-cell volume          =     304.7951 (a.u.)^3
     number of atoms/cell      =            2
     number of atomic types    =            2
     number of electrons       =        18.00
     number of Kohn-Sham states=            9
     kinetic-energy cutoff     =      80.0000  Ry
     charge density cutoff     =     800.0000  Ry
     scf convergence threshold =      1.0E-08
     mixing beta               =       0.7000
     number of iterations used =            8  plain     mixing
     Exchange-correlation= PBE
                           (   1   4   3   4   0   0   0)

     celldm(1)=  10.682904  celldm(2)=   0.000000  celldm(3)=   0.000000
     celldm(4)=   0.000000  celldm(5)=   0.000000  celldm(6)=   0.000000

     crystal axes: (cart. coord. in units of alat)
               a(1) = (  -0.500000   0.000000   0.500000 )  
               a(2) = (   0.000000   0.500000   0.500000 )  
               a(3) = (  -0.500000   0.500000   0.000000 )  

     reciprocal axes: (cart. coord. in units 2 pi/alat)
               b(1) = ( -1.000000 -1.000000  1.000000 )  
               b(2) = (  1.000000  1.000000  1.000000 )  
               b(3) = ( -1.000000  1.000000 -1.000000 )  


     PseudoPot. # 1 for Ga read from file:
     /home/paolo/project_labqsm/pseudopotentials/Ga.pbe-dn-rrkjus_psl.0.2.UPF
     MD5 check sum: ffdfce4fe0c152725d7fa40f12f9e9e5
     Pseudo is Ultrasoft + core correction, Zval = 13.0
     Generated using "atomic" code by A. Dal Corso  v.5.0.2 svn rev. 9415
     Using radial grid of 1205 points,  6 beta functions with: 
                l(1) =   0
                l(2) =   0
                l(3) =   1
                l(4) =   1
                l(5) =   2
                l(6) =   2
     Q(r) pseudized with 0 coefficients 


     PseudoPot. # 2 for As read from file:
     /home/paolo/project_labqsm/pseudopotentials/As.pbe-n-rrkjus_psl.0.2.UPF
     MD5 check sum: f98050c7212d27f7cb33035312670de9
     Pseudo is Ultrasoft + core correction, Zval =  5.0
     Generated using "atomic" code by A. Dal Corso  v.5.0.2 svn rev. 9415
     Using radial grid of 1209 points,  4 beta functions with: 
                l(1) =   0
                l(2) =   0
                l(3) =   1
                l(4) =   1
     Q(r) pseudized with 0 coefficients 


     atomic species   valence    mass     pseudopotential
        Ga            13.00    69.72300     Ga( 1.00)
        As             5.00    74.92200     As( 1.00)

     24 Sym. Ops. (no inversion) found



   Cartesian axes

     site n.     atom                  positions (alat units)
         1           Ga  tau(   1) = (   0.0000000   0.0000000   0.0000000  )
         2           As  tau(   2) = (   0.2500000   0.2500000   0.2500000  )

     number of k points=    29
                       cart. coord. in units 2pi/alat
        k(    1) = (   0.0000000   0.0000000   0.0000000), wk =   0.0039062
        k(    2) = (  -0.1250000   0.1250000  -0.1250000), wk =   0.0312500
        k(    3) = (  -0.2500000   0.2500000  -0.2500000), wk =   0.0312500
        k(    4) = (  -0.3750000   0.3750000  -0.3750000), wk =   0.0312500
        k(    5) = (   0.5000000  -0.5000000   0.5000000), wk =   0.0156250
        k(    6) = (   0.0000000   0.2500000   0.0000000), wk =   0.0234375
        k(    7) = (  -0.1250000   0.3750000  -0.1250000), wk =   0.0937500
        k(    8) = (  -0.2500000   0.5000000  -0.2500000), wk =   0.0937500
        k(    9) = (   0.6250000  -0.3750000   0.6250000), wk =   0.0937500
        k(   10) = (   0.5000000  -0.2500000   0.5000000), wk =   0.0937500
        k(   11) = (   0.3750000  -0.1250000   0.3750000), wk =   0.0937500
        k(   12) = (   0.2500000   0.0000000   0.2500000), wk =   0.0468750
        k(   13) = (   0.0000000   0.5000000   0.0000000), wk =   0.0234375
        k(   14) = (  -0.1250000   0.6250000  -0.1250000), wk =   0.0937500
        k(   15) = (   0.7500000  -0.2500000   0.7500000), wk =   0.0937500
        k(   16) = (   0.6250000  -0.1250000   0.6250000), wk =   0.0937500
        k(   17) = (   0.5000000   0.0000000   0.5000000), wk =   0.0468750
        k(   18) = (   0.0000000   0.7500000   0.0000000), wk =   0.0234375
        k(   19) = (   0.8750000  -0.1250000   0.8750000), wk =   0.0937500
        k(   20) = (   0.7500000   0.0000000   0.7500000), wk =   0.0468750
        k(   21) = (   0.0000000  -1.0000000   0.0000000), wk =   0.0117188
        k(   22) = (  -0.2500000   0.5000000   0.0000000), wk =   0.0937500
        k(   23) = (   0.6250000  -0.3750000   0.8750000), wk =   0.1875000
        k(   24) = (   0.5000000  -0.2500000   0.7500000), wk =   0.0937500
        k(   25) = (   0.7500000  -0.2500000   1.0000000), wk =   0.0937500
        k(   26) = (   0.6250000  -0.1250000   0.8750000), wk =   0.1875000
        k(   27) = (   0.5000000   0.0000000   0.7500000), wk =   0.0937500
        k(   28) = (  -0.2500000  -1.0000000   0.0000000), wk =   0.0468750
        k(   29) = (  -0.5000000  -1.0000000   0.0000000), wk =   0.0234375

     Dense  grid:   116125 G-vectors     FFT dimensions: (  72,  72,  72)

     Smooth grid:    29603 G-vectors     FFT dimensions: (  45,  45,  45)

     Estimated max dynamical RAM per process >     429.32 MB

     Initial potential from superposition of free atoms

     starting charge      17.9968, renormalised to      18.0000
     Starting wfcs are   13 randomized atomic wfcs

     total cpu time spent up to now is        2.4 secs

     Self-consistent Calculation

     iteration #  1     ecut=    80.00 Ry     beta= 0.70
     Davidson diagonalization with overlap
     ethr =  1.00E-02,  avg # of iterations =  1.5

     Threshold (ethr) on eigenvalues was too large:
     Diagonalizing with lowered threshold

     Davidson diagonalization with overlap
     ethr =  2.96E-04,  avg # of iterations =  2.0

     total cpu time spent up to now is        7.4 secs

     total energy              =    -191.01211129 Ry
     estimated scf accuracy    <       0.05076413 Ry

     iteration #  2     ecut=    80.00 Ry     beta= 0.70
     Davidson diagonalization with overlap
     ethr =  2.82E-04,  avg # of iterations =  2.5

     total cpu time spent up to now is       10.6 secs

     total energy              =    -191.02234650 Ry
     estimated scf accuracy    <       0.00975310 Ry

     iteration #  3     ecut=    80.00 Ry     beta= 0.70
     Davidson diagonalization with overlap
     ethr =  5.42E-05,  avg # of iterations =  2.0

     total cpu time spent up to now is       13.9 secs

     total energy              =    -191.02416451 Ry
     estimated scf accuracy    <       0.00043642 Ry

     iteration #  4     ecut=    80.00 Ry     beta= 0.70
     Davidson diagonalization with overlap
     ethr =  2.42E-06,  avg # of iterations =  2.8

     total cpu time spent up to now is       17.2 secs

     total energy              =    -191.02425697 Ry
     estimated scf accuracy    <       0.00006978 Ry

     iteration #  5     ecut=    80.00 Ry     beta= 0.70
     Davidson diagonalization with overlap
     ethr =  3.88E-07,  avg # of iterations =  2.2

     total cpu time spent up to now is       20.1 secs

     total energy              =    -191.02425220 Ry
     estimated scf accuracy    <       0.00001526 Ry

     iteration #  6     ecut=    80.00 Ry     beta= 0.70
     Davidson diagonalization with overlap
     ethr =  8.48E-08,  avg # of iterations =  3.4

     total cpu time spent up to now is       23.5 secs

     total energy              =    -191.02425653 Ry
     estimated scf accuracy    <       0.00001476 Ry

     iteration #  7     ecut=    80.00 Ry     beta= 0.70
     Davidson diagonalization with overlap
     ethr =  8.20E-08,  avg # of iterations =  2.0

     total cpu time spent up to now is       26.5 secs

     total energy              =    -191.02425861 Ry
     estimated scf accuracy    <       0.00000019 Ry

     iteration #  8     ecut=    80.00 Ry     beta= 0.70
     Davidson diagonalization with overlap
     ethr =  1.08E-09,  avg # of iterations =  4.9

     total cpu time spent up to now is       30.2 secs

     total energy              =    -191.02425877 Ry
     estimated scf accuracy    <       0.00000006 Ry

     iteration #  9     ecut=    80.00 Ry     beta= 0.70
     Davidson diagonalization with overlap
     ethr =  3.09E-10,  avg # of iterations =  2.0

     total cpu time spent up to now is       33.2 secs

     total energy              =    -191.02425877 Ry
     estimated scf accuracy    <       0.00000001 Ry

     iteration # 10     ecut=    80.00 Ry     beta= 0.70
     Davidson diagonalization with overlap
     ethr =  5.91E-11,  avg # of iterations =  3.6

     total cpu time spent up to now is       36.7 secs

     total energy              =    -191.02425877 Ry
     estimated scf accuracy    <       0.00000001 Ry

     iteration # 11     ecut=    80.00 Ry     beta= 0.70
     Davidson diagonalization with overlap
     ethr =  5.91E-11,  avg # of iterations =  2.1

     total cpu time spent up to now is       39.9 secs

     End of self-consistent calculation

          k = 0.0000 0.0000 0.0000 (  3695 PWs)   bands (ev):

    -8.0213  -8.0213  -8.0213  -7.9424  -7.9424  -5.9557   6.7783   6.7783
     6.7783

          k =-0.1250 0.1250-0.1250 (  3695 PWs)   bands (ev):

    -8.0347  -8.0178  -8.0178  -7.9425  -7.9425  -5.7734   4.8139   6.5409
     6.5409

          k =-0.2500 0.2500-0.2500 (  3693 PWs)   bands (ev):

    -8.0639  -8.0101  -8.0101  -7.9418  -7.9418  -5.2644   2.6337   6.0975
     6.0975

          k =-0.3750 0.3750-0.3750 (  3687 PWs)   bands (ev):

    -8.0900  -8.0040  -8.0040  -7.9394  -7.9394  -4.5824   0.8834   5.7564
     5.7564

          k = 0.5000-0.5000 0.5000 (  3708 PWs)   bands (ev):

    -8.1000  -8.0020  -8.0020  -7.9378  -7.9378  -4.1935   0.1295   5.6339
     5.6339

          k = 0.0000 0.2500 0.0000 (  3683 PWs)   bands (ev):

    -8.0424  -8.0144  -8.0144  -7.9453  -7.9403  -5.7128   4.7875   6.1174
     6.1174

          k =-0.1250 0.3750-0.1250 (  3674 PWs)   bands (ev):

    -8.0656  -8.0079  -8.0063  -7.9475  -7.9384  -5.3110   3.1432   5.6058
     5.6270

          k =-0.2500 0.5000-0.2500 (  3676 PWs)   bands (ev):

    -8.0893  -8.0024  -7.9995  -7.9465  -7.9366  -4.6696   1.3846   5.0057
     5.3349

          k = 0.6250-0.3750 0.6250 (  3690 PWs)   bands (ev):

    -8.1022  -7.9999  -7.9971  -7.9425  -7.9370  -4.1197   0.2855   4.5746
     5.3257

          k = 0.5000-0.2500 0.5000 (  3693 PWs)   bands (ev):

    -8.0985  -8.0001  -7.9991  -7.9406  -7.9396  -4.2578   0.5403   4.4367
     5.5931

          k = 0.3750-0.1250 0.3750 (  3686 PWs)   bands (ev):

    -8.0796  -8.0055  -8.0034  -7.9442  -7.9395  -4.9012   1.9331   4.6666
     6.0547

          k = 0.2500 0.0000 0.2500 (  3681 PWs)   bands (ev):

    -8.0536  -8.0137  -8.0103  -7.9445  -7.9407  -5.4813   3.6373   5.4096
     6.4975

          k = 0.0000 0.5000 0.0000 (  3655 PWs)   bands (ev):

    -8.0845  -7.9972  -7.9972  -7.9539  -7.9353  -5.0295   2.6855   5.0823
     5.0823

          k =-0.1250 0.6250-0.1250 (  3669 PWs)   bands (ev):

    -8.1028  -7.9909  -7.9890  -7.9564  -7.9332  -4.4841   1.5065   4.3552
     4.7513

          k = 0.7500-0.2500 0.7500 (  3685 PWs)   bands (ev):

    -8.1118  -7.9911  -7.9858  -7.9529  -7.9343  -3.9047   0.4975   3.5343
     4.7334

          k = 0.6250-0.1250 0.6250 (  3676 PWs)   bands (ev):

    -8.1092  -7.9941  -7.9882  -7.9467  -7.9391  -3.8117   0.3690   3.1192
     5.0303

          k = 0.5000 0.0000 0.5000 (  3669 PWs)   bands (ev):

    -8.0971  -7.9980  -7.9960  -7.9437  -7.9415  -4.3180   1.1268   3.4050
     5.5538

          k = 0.0000 0.7500 0.0000 (  3679 PWs)   bands (ev):

    -8.1191  -7.9794  -7.9794  -7.9635  -7.9302  -4.0695   0.8608   4.3509
     4.3509

          k = 0.8750-0.1250 0.8750 (  3680 PWs)   bands (ev):

    -8.1255  -7.9786  -7.9757  -7.9628  -7.9303  -3.6131   0.2228   3.6563
     4.2650

          k = 0.7500 0.0000 0.7500 (  3703 PWs)   bands (ev):

    -8.1203  -7.9857  -7.9788  -7.9560  -7.9346  -3.4908   0.1376   2.9088
     4.5142

          k = 0.0000-1.0000 0.0000 (  3692 PWs)   bands (ev):

    -8.1319  -7.9719  -7.9719  -7.9678  -7.9281  -3.4553  -0.0476   4.0943
     4.0943

          k =-0.2500 0.5000 0.0000 (  3662 PWs)   bands (ev):

    -8.0861  -8.0008  -7.9979  -7.9501  -7.9365  -4.8354   2.0913   4.3733
     5.4740

          k = 0.6250-0.3750 0.8750 (  3678 PWs)   bands (ev):

    -8.1023  -7.9972  -7.9912  -7.9487  -7.9367  -4.2042   0.8791   3.7179
     5.0367

          k = 0.5000-0.2500 0.7500 (  3674 PWs)   bands (ev):

    -8.1084  -7.9965  -7.9887  -7.9462  -7.9380  -3.8514   0.2821   3.5438
     4.8343

          k = 0.7500-0.2500 1.0000 (  3683 PWs)   bands (ev):

    -8.1149  -7.9872  -7.9814  -7.9577  -7.9327  -3.9553   0.7236   3.7276
     4.2941

          k = 0.6250-0.1250 0.8750 (  3686 PWs)   bands (ev):

    -8.1174  -7.9897  -7.9790  -7.9539  -7.9357  -3.5585   0.2362   3.1063
     4.1162

          k = 0.5000 0.0000 0.7500 (  3671 PWs)   bands (ev):

    -8.1123  -7.9937  -7.9825  -7.9498  -7.9384  -3.6989   0.4053   2.9628
     4.4588

          k =-0.2500-1.0000 0.0000 (  3690 PWs)   bands (ev):

    -8.1257  -7.9808  -7.9750  -7.9605  -7.9317  -3.4260   0.0386   3.6295
     3.7212

          k =-0.5000-1.0000 0.0000 (  3704 PWs)   bands (ev):

    -8.1187  -7.9905  -7.9762  -7.9531  -7.9372  -3.3961   0.1361   3.2371
     3.4216

     highest occupied level (ev):     6.7783

!    total energy              =    -191.02425877 Ry
     estimated scf accuracy    <          2.7E-11 Ry

     The total energy is the sum of the following terms:
     one-electron contribution =    -111.77957640 Ry
     hartree contribution      =      71.69368964 Ry
     xc contribution           =     -57.91920095 Ry
     ewald contribution        =     -93.01917106 Ry

     convergence has been achieved in  11 iterations

     Writing all to output data dir ./SCRATCH/gallium_arsenide.save/

     init_run     :      1.89s CPU      2.34s WALL (       1 calls)
     electrons    :     29.17s CPU     37.46s WALL (       1 calls)

     Called by init_run:
     wfcinit      :      0.84s CPU      0.86s WALL (       1 calls)
     potinit      :      0.14s CPU      0.23s WALL (       1 calls)
     hinit0       :      0.61s CPU      0.62s WALL (       1 calls)

     Called by electrons:
     c_bands      :     18.94s CPU     19.16s WALL (      12 calls)
     sum_band     :      5.98s CPU     10.05s WALL (      12 calls)
     v_of_rho     :      1.38s CPU      1.85s WALL (      12 calls)
     newd         :      2.97s CPU      6.91s WALL (      12 calls)
     mix_rho      :      0.14s CPU      0.13s WALL (      12 calls)

     Called by c_bands:
     init_us_2    :      0.45s CPU      0.54s WALL (     725 calls)
     init_us_2:cp :      0.45s CPU      0.54s WALL (     725 calls)
     cegterg      :     18.05s CPU     18.25s WALL (     348 calls)

     Called by *egterg:
     cdiaghg      :      0.06s CPU      0.08s WALL (    1219 calls)
     h_psi        :     15.97s CPU     16.15s WALL (    1277 calls)
     s_psi        :      0.73s CPU      0.64s WALL (    1277 calls)
     g_psi        :      0.03s CPU      0.06s WALL (     900 calls)

     Called by h_psi:
     h_psi:calbec :      0.95s CPU      0.94s WALL (    1277 calls)
     vloc_psi     :     14.22s CPU     14.51s WALL (    1277 calls)
     add_vuspsi   :      0.73s CPU      0.65s WALL (    1277 calls)

     General routines
     calbec       :      1.52s CPU      1.26s WALL (    1625 calls)
     fft          :      0.69s CPU      0.73s WALL (     155 calls)
     ffts         :      0.05s CPU      0.03s WALL (      24 calls)
     fftw         :     14.31s CPU     14.58s WALL (   20722 calls)
     interpolate  :      0.12s CPU      0.08s WALL (      12 calls)


     PWSCF        :     31.17s CPU     39.92s WALL


   This run was terminated on:  11:15:47  11Jun2024            

=------------------------------------------------------------------------------=
   JOB DONE.
=------------------------------------------------------------------------------=
