
     Program PWSCF v.7.2 starts on 11Jun2024 at 11:17:26 

     This program is part of the open-source Quantum ESPRESSO suite
     for quantum simulation of materials; please cite
         "P. Giannozzi et al., J. Phys.:Condens. Matter 21 395502 (2009);
         "P. Giannozzi et al., J. Phys.:Condens. Matter 29 465901 (2017);
         "P. Giannozzi et al., J. Chem. Phys. 152 154105 (2020);
          URL http://www.quantum-espresso.org", 
     in publications or presentations arising from this work. More details at
     http://www.quantum-espresso.org/quote

     Serial version
     8906 MiB available memory on the printing compute node when the environment starts

     Waiting for input...
     Reading input from standard input

     Current dimensions of program PWSCF are:
     Max number of different atomic species (ntypx) = 10
     Max number of k-points (npk) =  40000
     Max angular momentum in pseudopotentials (lmaxx) =  4
     file Ga.pbe-dn-rrkjus_psl.0.2.UPF: wavefunction(s)  4S 3D renormalized


     G-vector sticks info
     --------------------
     sticks:   dense  smooth     PW     G-vecs:    dense   smooth      PW
     Sum        3259    1285    379               123429    30923    4957

     Using Slab Decomposition



     bravais-lattice index     =            2
     lattice parameter (alat)  =      10.8966  a.u.
     unit-cell volume          =     323.4510 (a.u.)^3
     number of atoms/cell      =            2
     number of atomic types    =            2
     number of electrons       =        18.00
     number of Kohn-Sham states=            9
     kinetic-energy cutoff     =      80.0000  Ry
     charge density cutoff     =     800.0000  Ry
     scf convergence threshold =      1.0E-08
     mixing beta               =       0.7000
     number of iterations used =            8  plain     mixing
     Exchange-correlation= PBE
                           (   1   4   3   4   0   0   0)

     celldm(1)=  10.896563  celldm(2)=   0.000000  celldm(3)=   0.000000
     celldm(4)=   0.000000  celldm(5)=   0.000000  celldm(6)=   0.000000

     crystal axes: (cart. coord. in units of alat)
               a(1) = (  -0.500000   0.000000   0.500000 )  
               a(2) = (   0.000000   0.500000   0.500000 )  
               a(3) = (  -0.500000   0.500000   0.000000 )  

     reciprocal axes: (cart. coord. in units 2 pi/alat)
               b(1) = ( -1.000000 -1.000000  1.000000 )  
               b(2) = (  1.000000  1.000000  1.000000 )  
               b(3) = ( -1.000000  1.000000 -1.000000 )  


     PseudoPot. # 1 for Ga read from file:
     /home/paolo/project_labqsm/pseudopotentials/Ga.pbe-dn-rrkjus_psl.0.2.UPF
     MD5 check sum: ffdfce4fe0c152725d7fa40f12f9e9e5
     Pseudo is Ultrasoft + core correction, Zval = 13.0
     Generated using "atomic" code by A. Dal Corso  v.5.0.2 svn rev. 9415
     Using radial grid of 1205 points,  6 beta functions with: 
                l(1) =   0
                l(2) =   0
                l(3) =   1
                l(4) =   1
                l(5) =   2
                l(6) =   2
     Q(r) pseudized with 0 coefficients 


     PseudoPot. # 2 for As read from file:
     /home/paolo/project_labqsm/pseudopotentials/As.pbe-n-rrkjus_psl.0.2.UPF
     MD5 check sum: f98050c7212d27f7cb33035312670de9
     Pseudo is Ultrasoft + core correction, Zval =  5.0
     Generated using "atomic" code by A. Dal Corso  v.5.0.2 svn rev. 9415
     Using radial grid of 1209 points,  4 beta functions with: 
                l(1) =   0
                l(2) =   0
                l(3) =   1
                l(4) =   1
     Q(r) pseudized with 0 coefficients 


     atomic species   valence    mass     pseudopotential
        Ga            13.00    69.72300     Ga( 1.00)
        As             5.00    74.92200     As( 1.00)

     24 Sym. Ops. (no inversion) found



   Cartesian axes

     site n.     atom                  positions (alat units)
         1           Ga  tau(   1) = (   0.0000000   0.0000000   0.0000000  )
         2           As  tau(   2) = (   0.2500000   0.2500000   0.2500000  )

     number of k points=    29
                       cart. coord. in units 2pi/alat
        k(    1) = (   0.0000000   0.0000000   0.0000000), wk =   0.0039062
        k(    2) = (  -0.1250000   0.1250000  -0.1250000), wk =   0.0312500
        k(    3) = (  -0.2500000   0.2500000  -0.2500000), wk =   0.0312500
        k(    4) = (  -0.3750000   0.3750000  -0.3750000), wk =   0.0312500
        k(    5) = (   0.5000000  -0.5000000   0.5000000), wk =   0.0156250
        k(    6) = (   0.0000000   0.2500000   0.0000000), wk =   0.0234375
        k(    7) = (  -0.1250000   0.3750000  -0.1250000), wk =   0.0937500
        k(    8) = (  -0.2500000   0.5000000  -0.2500000), wk =   0.0937500
        k(    9) = (   0.6250000  -0.3750000   0.6250000), wk =   0.0937500
        k(   10) = (   0.5000000  -0.2500000   0.5000000), wk =   0.0937500
        k(   11) = (   0.3750000  -0.1250000   0.3750000), wk =   0.0937500
        k(   12) = (   0.2500000   0.0000000   0.2500000), wk =   0.0468750
        k(   13) = (   0.0000000   0.5000000   0.0000000), wk =   0.0234375
        k(   14) = (  -0.1250000   0.6250000  -0.1250000), wk =   0.0937500
        k(   15) = (   0.7500000  -0.2500000   0.7500000), wk =   0.0937500
        k(   16) = (   0.6250000  -0.1250000   0.6250000), wk =   0.0937500
        k(   17) = (   0.5000000   0.0000000   0.5000000), wk =   0.0468750
        k(   18) = (   0.0000000   0.7500000   0.0000000), wk =   0.0234375
        k(   19) = (   0.8750000  -0.1250000   0.8750000), wk =   0.0937500
        k(   20) = (   0.7500000   0.0000000   0.7500000), wk =   0.0468750
        k(   21) = (   0.0000000  -1.0000000   0.0000000), wk =   0.0117188
        k(   22) = (  -0.2500000   0.5000000   0.0000000), wk =   0.0937500
        k(   23) = (   0.6250000  -0.3750000   0.8750000), wk =   0.1875000
        k(   24) = (   0.5000000  -0.2500000   0.7500000), wk =   0.0937500
        k(   25) = (   0.7500000  -0.2500000   1.0000000), wk =   0.0937500
        k(   26) = (   0.6250000  -0.1250000   0.8750000), wk =   0.1875000
        k(   27) = (   0.5000000   0.0000000   0.7500000), wk =   0.0937500
        k(   28) = (  -0.2500000  -1.0000000   0.0000000), wk =   0.0468750
        k(   29) = (  -0.5000000  -1.0000000   0.0000000), wk =   0.0234375

     Dense  grid:   123429 G-vectors     FFT dimensions: (  72,  72,  72)

     Smooth grid:    30923 G-vectors     FFT dimensions: (  45,  45,  45)

     Estimated max dynamical RAM per process >     454.39 MB

     Initial potential from superposition of free atoms

     starting charge      17.9968, renormalised to      18.0000
     Starting wfcs are   13 randomized atomic wfcs

     total cpu time spent up to now is        2.5 secs

     Self-consistent Calculation

     iteration #  1     ecut=    80.00 Ry     beta= 0.70
     Davidson diagonalization with overlap
     ethr =  1.00E-02,  avg # of iterations =  1.4

     Threshold (ethr) on eigenvalues was too large:
     Diagonalizing with lowered threshold

     Davidson diagonalization with overlap
     ethr =  2.83E-04,  avg # of iterations =  2.0

     total cpu time spent up to now is        7.6 secs

     total energy              =    -191.01379940 Ry
     estimated scf accuracy    <       0.04892305 Ry

     iteration #  2     ecut=    80.00 Ry     beta= 0.70
     Davidson diagonalization with overlap
     ethr =  2.72E-04,  avg # of iterations =  2.5

     total cpu time spent up to now is       10.8 secs

     total energy              =    -191.02401618 Ry
     estimated scf accuracy    <       0.01063169 Ry

     iteration #  3     ecut=    80.00 Ry     beta= 0.70
     Davidson diagonalization with overlap
     ethr =  5.91E-05,  avg # of iterations =  2.0

     total cpu time spent up to now is       14.1 secs

     total energy              =    -191.02595330 Ry
     estimated scf accuracy    <       0.00044632 Ry

     iteration #  4     ecut=    80.00 Ry     beta= 0.70
     Davidson diagonalization with overlap
     ethr =  2.48E-06,  avg # of iterations =  3.3

     total cpu time spent up to now is       17.6 secs

     total energy              =    -191.02606538 Ry
     estimated scf accuracy    <       0.00010203 Ry

     iteration #  5     ecut=    80.00 Ry     beta= 0.70
     Davidson diagonalization with overlap
     ethr =  5.67E-07,  avg # of iterations =  2.0

     total cpu time spent up to now is       20.5 secs

     total energy              =    -191.02605509 Ry
     estimated scf accuracy    <       0.00002339 Ry

     iteration #  6     ecut=    80.00 Ry     beta= 0.70
     Davidson diagonalization with overlap
     ethr =  1.30E-07,  avg # of iterations =  3.3

     total cpu time spent up to now is       23.9 secs

     total energy              =    -191.02606462 Ry
     estimated scf accuracy    <       0.00002819 Ry

     iteration #  7     ecut=    80.00 Ry     beta= 0.70
     Davidson diagonalization with overlap
     ethr =  1.30E-07,  avg # of iterations =  2.0

     total cpu time spent up to now is       26.9 secs

     total energy              =    -191.02606577 Ry
     estimated scf accuracy    <       0.00000249 Ry

     iteration #  8     ecut=    80.00 Ry     beta= 0.70
     Davidson diagonalization with overlap
     ethr =  1.38E-08,  avg # of iterations =  3.5

     total cpu time spent up to now is       30.2 secs

     total energy              =    -191.02606670 Ry
     estimated scf accuracy    <       0.00000010 Ry

     iteration #  9     ecut=    80.00 Ry     beta= 0.70
     Davidson diagonalization with overlap
     ethr =  5.45E-10,  avg # of iterations =  2.7

     total cpu time spent up to now is       33.2 secs

     total energy              =    -191.02606667 Ry
     estimated scf accuracy    <       0.00000007 Ry

     iteration # 10     ecut=    80.00 Ry     beta= 0.70
     Davidson diagonalization with overlap
     ethr =  4.02E-10,  avg # of iterations =  2.2

     total cpu time spent up to now is       36.2 secs

     End of self-consistent calculation

          k = 0.0000 0.0000 0.0000 (  3839 PWs)   bands (ev):

    -8.6289  -8.6289  -8.6289  -8.5634  -8.5634  -6.2478   6.0754   6.0754
     6.0754

          k =-0.1250 0.1250-0.1250 (  3882 PWs)   bands (ev):

    -8.6388  -8.6260  -8.6260  -8.5635  -8.5635  -6.0811   4.0703   5.8595
     5.8595

          k =-0.2500 0.2500-0.2500 (  3885 PWs)   bands (ev):

    -8.6613  -8.6197  -8.6197  -8.5629  -8.5629  -5.6168   2.0385   5.4505
     5.4505

          k =-0.3750 0.3750-0.3750 (  3879 PWs)   bands (ev):

    -8.6819  -8.6147  -8.6147  -8.5610  -8.5610  -5.0033   0.4213   5.1325
     5.1325

          k = 0.5000-0.5000 0.5000 (  3852 PWs)   bands (ev):

    -8.6901  -8.6130  -8.6130  -8.5598  -8.5598  -4.6628  -0.2627   5.0178
     5.0178

          k = 0.0000 0.2500 0.0000 (  3879 PWs)   bands (ev):

    -8.6450  -8.6232  -8.6232  -8.5657  -8.5617  -6.0255   3.9989   5.4754
     5.4754

          k =-0.1250 0.3750-0.1250 (  3900 PWs)   bands (ev):

    -8.6630  -8.6179  -8.6167  -8.5674  -8.5602  -5.6582   2.4805   4.9848
     5.0215

          k =-0.2500 0.5000-0.2500 (  3911 PWs)   bands (ev):

    -8.6818  -8.6135  -8.6111  -8.5665  -8.5588  -5.0781   0.8641   4.4132
     4.7474

          k = 0.6250-0.3750 0.6250 (  3905 PWs)   bands (ev):

    -8.6922  -8.6113  -8.6091  -8.5634  -8.5590  -4.5935  -0.1321   4.0073
     4.7359

          k = 0.5000-0.2500 0.5000 (  3911 PWs)   bands (ev):

    -8.6892  -8.6115  -8.6108  -8.5619  -8.5611  -4.7139   0.0971   3.8855
     4.9818

          k = 0.3750-0.1250 0.3750 (  3901 PWs)   bands (ev):

    -8.6739  -8.6161  -8.6143  -8.5648  -8.5610  -5.2868   1.3673   4.1175
     5.4078

          k = 0.2500 0.0000 0.2500 (  3885 PWs)   bands (ev):

    -8.6534  -8.6227  -8.6199  -8.5651  -8.5620  -5.8141   2.9461   4.8253
     5.8153

          k = 0.0000 0.5000 0.0000 (  3928 PWs)   bands (ev):

    -8.6786  -8.6093  -8.6093  -8.5723  -8.5576  -5.4000   2.0155   4.5167
     4.5167

          k =-0.1250 0.6250-0.1250 (  3916 PWs)   bands (ev):

    -8.6936  -8.6041  -8.6026  -8.5742  -8.5559  -4.9065   0.9296   3.8369
     4.2071

          k = 0.7500-0.2500 0.7500 (  3905 PWs)   bands (ev):

    -8.7008  -8.6041  -8.6001  -8.5716  -8.5568  -4.3957   0.0220   3.0659
     4.1886

          k = 0.6250-0.1250 0.6250 (  3916 PWs)   bands (ev):

    -8.6985  -8.6066  -8.6020  -8.5667  -8.5607  -4.3175  -0.0890   2.6817
     4.4631

          k = 0.5000 0.0000 0.5000 (  3919 PWs)   bands (ev):

    -8.6883  -8.6098  -8.6083  -8.5643  -8.5625  -4.7622   0.5949   2.9572
     4.9470

          k = 0.0000 0.7500 0.0000 (  3940 PWs)   bands (ev):

    -8.7073  -8.5949  -8.5949  -8.5797  -8.5535  -4.5337   0.3281   3.8338
     3.8338

          k = 0.8750-0.1250 0.8750 (  3925 PWs)   bands (ev):

    -8.7127  -8.5941  -8.5919  -8.5794  -8.5535  -4.1360  -0.2444   3.1945
     3.7528

          k = 0.7500 0.0000 0.7500 (  3907 PWs)   bands (ev):

    -8.7081  -8.5997  -8.5944  -8.5740  -8.5570  -4.0356  -0.3157   2.5057
     3.9843

          k = 0.0000-1.0000 0.0000 (  3892 PWs)   bands (ev):

    -8.7181  -8.5889  -8.5889  -8.5830  -8.5518  -4.0000  -0.4830   3.5936
     3.5936

          k =-0.2500 0.5000 0.0000 (  3905 PWs)   bands (ev):

    -8.6796  -8.6122  -8.6098  -8.5694  -8.5586  -5.2254   1.4829   3.8599
     4.8717

          k = 0.6250-0.3750 0.8750 (  3911 PWs)   bands (ev):

    -8.6927  -8.6092  -8.6043  -8.5683  -8.5588  -4.6608   0.3753   3.2339
     4.4721

          k = 0.5000-0.2500 0.7500 (  3906 PWs)   bands (ev):

    -8.6977  -8.6086  -8.6023  -8.5663  -8.5598  -4.3539  -0.1558   3.0603
     4.2873

          k = 0.7500-0.2500 1.0000 (  3924 PWs)   bands (ev):

    -8.7036  -8.6012  -8.5964  -8.5754  -8.5555  -4.4357   0.2071   3.2577
     3.7883

          k = 0.6250-0.1250 0.8750 (  3910 PWs)   bands (ev):

    -8.7057  -8.6032  -8.5943  -8.5724  -8.5579  -4.0936  -0.2273   2.6833
     3.6244

          k = 0.5000 0.0000 0.7500 (  3910 PWs)   bands (ev):

    -8.7012  -8.6064  -8.5972  -8.5692  -8.5600  -4.2162  -0.0738   2.5508
     3.9405

          k =-0.2500-1.0000 0.0000 (  3928 PWs)   bands (ev):

    -8.7128  -8.5961  -8.5909  -8.5777  -8.5546  -3.9772  -0.4069   3.1663
     3.2599

          k =-0.5000-1.0000 0.0000 (  3884 PWs)   bands (ev):

    -8.7068  -8.6040  -8.5919  -8.5720  -8.5590  -3.9539  -0.3219   2.8061
     2.9896

     highest occupied level (ev):     6.0754

!    total energy              =    -191.02606668 Ry
     estimated scf accuracy    <          1.6E-09 Ry

     The total energy is the sum of the following terms:
     one-electron contribution =    -114.72166455 Ry
     hartree contribution      =      72.74989294 Ry
     xc contribution           =     -57.85902932 Ry
     ewald contribution        =     -91.19526574 Ry

     convergence has been achieved in  10 iterations

     Writing all to output data dir ./SCRATCH/gallium_arsenide.save/

     init_run     :      1.92s CPU      2.38s WALL (       1 calls)
     electrons    :     27.05s CPU     33.75s WALL (       1 calls)

     Called by init_run:
     wfcinit      :      0.86s CPU      0.87s WALL (       1 calls)
     potinit      :      0.17s CPU      0.22s WALL (       1 calls)
     hinit0       :      0.56s CPU      0.61s WALL (       1 calls)

     Called by electrons:
     c_bands      :     16.97s CPU     17.02s WALL (      11 calls)
     sum_band     :      5.73s CPU      9.47s WALL (      11 calls)
     v_of_rho     :      1.36s CPU      1.41s WALL (      11 calls)
     newd         :      3.19s CPU      6.41s WALL (      11 calls)
     mix_rho      :      0.11s CPU      0.12s WALL (      11 calls)

     Called by c_bands:
     init_us_2    :      0.59s CPU      0.53s WALL (     667 calls)
     init_us_2:cp :      0.59s CPU      0.52s WALL (     667 calls)
     cegterg      :     16.12s CPU     16.15s WALL (     319 calls)

     Called by *egterg:
     cdiaghg      :      0.06s CPU      0.07s WALL (    1074 calls)
     h_psi        :     14.31s CPU     14.31s WALL (    1132 calls)
     s_psi        :      0.73s CPU      0.60s WALL (    1132 calls)
     g_psi        :      0.06s CPU      0.05s WALL (     784 calls)

     Called by h_psi:
     h_psi:calbec :      1.05s CPU      0.87s WALL (    1132 calls)
     vloc_psi     :     12.62s CPU     12.80s WALL (    1132 calls)
     add_vuspsi   :      0.53s CPU      0.60s WALL (    1132 calls)

     General routines
     calbec       :      1.44s CPU      1.17s WALL (    1451 calls)
     fft          :      0.67s CPU      0.67s WALL (     142 calls)
     ffts         :      0.02s CPU      0.02s WALL (      22 calls)
     fftw         :     12.55s CPU     12.99s WALL (   18469 calls)
     interpolate  :      0.06s CPU      0.07s WALL (      11 calls)


     PWSCF        :     29.05s CPU     36.26s WALL


   This run was terminated on:  11:18: 2  11Jun2024            

=------------------------------------------------------------------------------=
   JOB DONE.
=------------------------------------------------------------------------------=
