
     Program PWSCF v.7.2 starts on 11Jun2024 at 11:14:12 

     This program is part of the open-source Quantum ESPRESSO suite
     for quantum simulation of materials; please cite
         "P. Giannozzi et al., J. Phys.:Condens. Matter 21 395502 (2009);
         "P. Giannozzi et al., J. Phys.:Condens. Matter 29 465901 (2017);
         "P. Giannozzi et al., J. Chem. Phys. 152 154105 (2020);
          URL http://www.quantum-espresso.org", 
     in publications or presentations arising from this work. More details at
     http://www.quantum-espresso.org/quote

     Serial version
     8907 MiB available memory on the printing compute node when the environment starts

     Waiting for input...
     Reading input from standard input

     Current dimensions of program PWSCF are:
     Max number of different atomic species (ntypx) = 10
     Max number of k-points (npk) =  40000
     Max angular momentum in pseudopotentials (lmaxx) =  4
     file Ga.pbe-dn-rrkjus_psl.0.2.UPF: wavefunction(s)  4S 3D renormalized


     G-vector sticks info
     --------------------
     sticks:   dense  smooth     PW     G-vecs:    dense   smooth      PW
     Sum        2347     955    283                75457    19195    3143

     Using Slab Decomposition



     bravais-lattice index     =            2
     lattice parameter (alat)  =      10.6829  a.u.
     unit-cell volume          =     304.7951 (a.u.)^3
     number of atoms/cell      =            2
     number of atomic types    =            2
     number of electrons       =        18.00
     number of Kohn-Sham states=            9
     kinetic-energy cutoff     =      60.0000  Ry
     charge density cutoff     =     600.0000  Ry
     scf convergence threshold =      1.0E-08
     mixing beta               =       0.7000
     number of iterations used =            8  plain     mixing
     Exchange-correlation= PBE
                           (   1   4   3   4   0   0   0)

     celldm(1)=  10.682904  celldm(2)=   0.000000  celldm(3)=   0.000000
     celldm(4)=   0.000000  celldm(5)=   0.000000  celldm(6)=   0.000000

     crystal axes: (cart. coord. in units of alat)
               a(1) = (  -0.500000   0.000000   0.500000 )  
               a(2) = (   0.000000   0.500000   0.500000 )  
               a(3) = (  -0.500000   0.500000   0.000000 )  

     reciprocal axes: (cart. coord. in units 2 pi/alat)
               b(1) = ( -1.000000 -1.000000  1.000000 )  
               b(2) = (  1.000000  1.000000  1.000000 )  
               b(3) = ( -1.000000  1.000000 -1.000000 )  


     PseudoPot. # 1 for Ga read from file:
     /home/paolo/project_labqsm/pseudopotentials/Ga.pbe-dn-rrkjus_psl.0.2.UPF
     MD5 check sum: ffdfce4fe0c152725d7fa40f12f9e9e5
     Pseudo is Ultrasoft + core correction, Zval = 13.0
     Generated using "atomic" code by A. Dal Corso  v.5.0.2 svn rev. 9415
     Using radial grid of 1205 points,  6 beta functions with: 
                l(1) =   0
                l(2) =   0
                l(3) =   1
                l(4) =   1
                l(5) =   2
                l(6) =   2
     Q(r) pseudized with 0 coefficients 


     PseudoPot. # 2 for As read from file:
     /home/paolo/project_labqsm/pseudopotentials/As.pbe-n-rrkjus_psl.0.2.UPF
     MD5 check sum: f98050c7212d27f7cb33035312670de9
     Pseudo is Ultrasoft + core correction, Zval =  5.0
     Generated using "atomic" code by A. Dal Corso  v.5.0.2 svn rev. 9415
     Using radial grid of 1209 points,  4 beta functions with: 
                l(1) =   0
                l(2) =   0
                l(3) =   1
                l(4) =   1
     Q(r) pseudized with 0 coefficients 


     atomic species   valence    mass     pseudopotential
        Ga            13.00    69.72300     Ga( 1.00)
        As             5.00    74.92200     As( 1.00)

     24 Sym. Ops. (no inversion) found



   Cartesian axes

     site n.     atom                  positions (alat units)
         1           Ga  tau(   1) = (   0.0000000   0.0000000   0.0000000  )
         2           As  tau(   2) = (   0.2500000   0.2500000   0.2500000  )

     number of k points=    29
                       cart. coord. in units 2pi/alat
        k(    1) = (   0.0000000   0.0000000   0.0000000), wk =   0.0039062
        k(    2) = (  -0.1250000   0.1250000  -0.1250000), wk =   0.0312500
        k(    3) = (  -0.2500000   0.2500000  -0.2500000), wk =   0.0312500
        k(    4) = (  -0.3750000   0.3750000  -0.3750000), wk =   0.0312500
        k(    5) = (   0.5000000  -0.5000000   0.5000000), wk =   0.0156250
        k(    6) = (   0.0000000   0.2500000   0.0000000), wk =   0.0234375
        k(    7) = (  -0.1250000   0.3750000  -0.1250000), wk =   0.0937500
        k(    8) = (  -0.2500000   0.5000000  -0.2500000), wk =   0.0937500
        k(    9) = (   0.6250000  -0.3750000   0.6250000), wk =   0.0937500
        k(   10) = (   0.5000000  -0.2500000   0.5000000), wk =   0.0937500
        k(   11) = (   0.3750000  -0.1250000   0.3750000), wk =   0.0937500
        k(   12) = (   0.2500000   0.0000000   0.2500000), wk =   0.0468750
        k(   13) = (   0.0000000   0.5000000   0.0000000), wk =   0.0234375
        k(   14) = (  -0.1250000   0.6250000  -0.1250000), wk =   0.0937500
        k(   15) = (   0.7500000  -0.2500000   0.7500000), wk =   0.0937500
        k(   16) = (   0.6250000  -0.1250000   0.6250000), wk =   0.0937500
        k(   17) = (   0.5000000   0.0000000   0.5000000), wk =   0.0468750
        k(   18) = (   0.0000000   0.7500000   0.0000000), wk =   0.0234375
        k(   19) = (   0.8750000  -0.1250000   0.8750000), wk =   0.0937500
        k(   20) = (   0.7500000   0.0000000   0.7500000), wk =   0.0468750
        k(   21) = (   0.0000000  -1.0000000   0.0000000), wk =   0.0117188
        k(   22) = (  -0.2500000   0.5000000   0.0000000), wk =   0.0937500
        k(   23) = (   0.6250000  -0.3750000   0.8750000), wk =   0.1875000
        k(   24) = (   0.5000000  -0.2500000   0.7500000), wk =   0.0937500
        k(   25) = (   0.7500000  -0.2500000   1.0000000), wk =   0.0937500
        k(   26) = (   0.6250000  -0.1250000   0.8750000), wk =   0.1875000
        k(   27) = (   0.5000000   0.0000000   0.7500000), wk =   0.0937500
        k(   28) = (  -0.2500000  -1.0000000   0.0000000), wk =   0.0468750
        k(   29) = (  -0.5000000  -1.0000000   0.0000000), wk =   0.0234375

     Dense  grid:    75457 G-vectors     FFT dimensions: (  60,  60,  60)

     Smooth grid:    19195 G-vectors     FFT dimensions: (  40,  40,  40)

     Estimated max dynamical RAM per process >     278.12 MB

     Initial potential from superposition of free atoms

     starting charge      17.9968, renormalised to      18.0000
     Starting wfcs are   13 randomized atomic wfcs

     total cpu time spent up to now is        1.7 secs

     Self-consistent Calculation

     iteration #  1     ecut=    60.00 Ry     beta= 0.70
     Davidson diagonalization with overlap
     ethr =  1.00E-02,  avg # of iterations =  1.4

     Threshold (ethr) on eigenvalues was too large:
     Diagonalizing with lowered threshold

     Davidson diagonalization with overlap
     ethr =  2.95E-04,  avg # of iterations =  2.0

     total cpu time spent up to now is        4.9 secs

     total energy              =    -191.01182833 Ry
     estimated scf accuracy    <       0.05074506 Ry

     iteration #  2     ecut=    60.00 Ry     beta= 0.70
     Davidson diagonalization with overlap
     ethr =  2.82E-04,  avg # of iterations =  2.4

     total cpu time spent up to now is        6.9 secs

     total energy              =    -191.02205129 Ry
     estimated scf accuracy    <       0.00971256 Ry

     iteration #  3     ecut=    60.00 Ry     beta= 0.70
     Davidson diagonalization with overlap
     ethr =  5.40E-05,  avg # of iterations =  2.0

     total cpu time spent up to now is        9.0 secs

     total energy              =    -191.02385170 Ry
     estimated scf accuracy    <       0.00042816 Ry

     iteration #  4     ecut=    60.00 Ry     beta= 0.70
     Davidson diagonalization with overlap
     ethr =  2.38E-06,  avg # of iterations =  2.7

     total cpu time spent up to now is       11.1 secs

     total energy              =    -191.02394076 Ry
     estimated scf accuracy    <       0.00006813 Ry

     iteration #  5     ecut=    60.00 Ry     beta= 0.70
     Davidson diagonalization with overlap
     ethr =  3.79E-07,  avg # of iterations =  2.0

     total cpu time spent up to now is       13.0 secs

     total energy              =    -191.02393618 Ry
     estimated scf accuracy    <       0.00001480 Ry

     iteration #  6     ecut=    60.00 Ry     beta= 0.70
     Davidson diagonalization with overlap
     ethr =  8.22E-08,  avg # of iterations =  3.4

     total cpu time spent up to now is       15.1 secs

     total energy              =    -191.02394045 Ry
     estimated scf accuracy    <       0.00001356 Ry

     iteration #  7     ecut=    60.00 Ry     beta= 0.70
     Davidson diagonalization with overlap
     ethr =  7.54E-08,  avg # of iterations =  2.0

     total cpu time spent up to now is       17.0 secs

     total energy              =    -191.02394253 Ry
     estimated scf accuracy    <       0.00000012 Ry

     iteration #  8     ecut=    60.00 Ry     beta= 0.70
     Davidson diagonalization with overlap
     ethr =  6.72E-10,  avg # of iterations =  5.1

     total cpu time spent up to now is       19.6 secs

     total energy              =    -191.02394266 Ry
     estimated scf accuracy    <       0.00000010 Ry

     iteration #  9     ecut=    60.00 Ry     beta= 0.70
     Davidson diagonalization with overlap
     ethr =  5.74E-10,  avg # of iterations =  2.0

     total cpu time spent up to now is       21.4 secs

     End of self-consistent calculation

          k = 0.0000 0.0000 0.0000 (  2421 PWs)   bands (ev):

    -8.0212  -8.0212  -8.0212  -7.9423  -7.9423  -5.9558   6.7782   6.7782
     6.7782

          k =-0.1250 0.1250-0.1250 (  2385 PWs)   bands (ev):

    -8.0346  -8.0176  -8.0176  -7.9424  -7.9424  -5.7735   4.8139   6.5407
     6.5407

          k =-0.2500 0.2500-0.2500 (  2406 PWs)   bands (ev):

    -8.0638  -8.0099  -8.0099  -7.9416  -7.9416  -5.2645   2.6336   6.0974
     6.0974

          k =-0.3750 0.3750-0.3750 (  2406 PWs)   bands (ev):

    -8.0898  -8.0038  -8.0038  -7.9393  -7.9393  -4.5825   0.8833   5.7563
     5.7563

          k = 0.5000-0.5000 0.5000 (  2392 PWs)   bands (ev):

    -8.0999  -8.0018  -8.0018  -7.9377  -7.9377  -4.1936   0.1295   5.6338
     5.6338

          k = 0.0000 0.2500 0.0000 (  2381 PWs)   bands (ev):

    -8.0422  -8.0142  -8.0142  -7.9452  -7.9402  -5.7128   4.7874   6.1173
     6.1173

          k =-0.1250 0.3750-0.1250 (  2403 PWs)   bands (ev):

    -8.0654  -8.0077  -8.0062  -7.9474  -7.9383  -5.3111   3.1431   5.6057
     5.6270

          k =-0.2500 0.5000-0.2500 (  2407 PWs)   bands (ev):

    -8.0891  -8.0023  -7.9994  -7.9463  -7.9365  -4.6697   1.3845   5.0057
     5.3349

          k = 0.6250-0.3750 0.6250 (  2402 PWs)   bands (ev):

    -8.1021  -7.9997  -7.9970  -7.9423  -7.9368  -4.1198   0.2855   4.5745
     5.3257

          k = 0.5000-0.2500 0.5000 (  2393 PWs)   bands (ev):

    -8.0984  -8.0000  -7.9990  -7.9405  -7.9395  -4.2579   0.5402   4.4367
     5.5930

          k = 0.3750-0.1250 0.3750 (  2395 PWs)   bands (ev):

    -8.0794  -8.0054  -8.0033  -7.9441  -7.9394  -4.9013   1.9331   4.6665
     6.0546

          k = 0.2500 0.0000 0.2500 (  2401 PWs)   bands (ev):

    -8.0535  -8.0136  -8.0101  -7.9444  -7.9406  -5.4814   3.6372   5.4095
     6.4974

          k = 0.0000 0.5000 0.0000 (  2413 PWs)   bands (ev):

    -8.0844  -7.9971  -7.9971  -7.9538  -7.9351  -5.0295   2.6855   5.0822
     5.0822

          k =-0.1250 0.6250-0.1250 (  2393 PWs)   bands (ev):

    -8.1027  -7.9907  -7.9889  -7.9562  -7.9331  -4.4842   1.5065   4.3551
     4.7512

          k = 0.7500-0.2500 0.7500 (  2395 PWs)   bands (ev):

    -8.1117  -7.9909  -7.9857  -7.9528  -7.9342  -3.9048   0.4975   3.5343
     4.7334

          k = 0.6250-0.1250 0.6250 (  2379 PWs)   bands (ev):

    -8.1091  -7.9940  -7.9881  -7.9466  -7.9390  -3.8118   0.3690   3.1191
     5.0302

          k = 0.5000 0.0000 0.5000 (  2385 PWs)   bands (ev):

    -8.0969  -7.9979  -7.9958  -7.9436  -7.9414  -4.3181   1.1267   3.4049
     5.5538

          k = 0.0000 0.7500 0.0000 (  2393 PWs)   bands (ev):

    -8.1189  -7.9793  -7.9793  -7.9634  -7.9301  -4.0696   0.8607   4.3508
     4.3508

          k = 0.8750-0.1250 0.8750 (  2391 PWs)   bands (ev):

    -8.1254  -7.9785  -7.9755  -7.9627  -7.9302  -3.6132   0.2228   3.6563
     4.2649

          k = 0.7500 0.0000 0.7500 (  2382 PWs)   bands (ev):

    -8.1202  -7.9855  -7.9786  -7.9559  -7.9345  -3.4910   0.1376   2.9087
     4.5141

          k = 0.0000-1.0000 0.0000 (  2402 PWs)   bands (ev):

    -8.1318  -7.9718  -7.9718  -7.9676  -7.9280  -3.4554  -0.0476   4.0942
     4.0942

          k =-0.2500 0.5000 0.0000 (  2391 PWs)   bands (ev):

    -8.0860  -8.0006  -7.9978  -7.9500  -7.9364  -4.8355   2.0913   4.3732
     5.4740

          k = 0.6250-0.3750 0.8750 (  2398 PWs)   bands (ev):

    -8.1022  -7.9971  -7.9910  -7.9486  -7.9366  -4.2043   0.8791   3.7179
     5.0367

          k = 0.5000-0.2500 0.7500 (  2392 PWs)   bands (ev):

    -8.1082  -7.9964  -7.9886  -7.9461  -7.9378  -3.8515   0.2821   3.5438
     4.8342

          k = 0.7500-0.2500 1.0000 (  2385 PWs)   bands (ev):

    -8.1148  -7.9870  -7.9813  -7.9576  -7.9326  -3.9554   0.7236   3.7275
     4.2940

          k = 0.6250-0.1250 0.8750 (  2389 PWs)   bands (ev):

    -8.1173  -7.9896  -7.9788  -7.9538  -7.9356  -3.5587   0.2362   3.1062
     4.1161

          k = 0.5000 0.0000 0.7500 (  2387 PWs)   bands (ev):

    -8.1121  -7.9935  -7.9824  -7.9497  -7.9383  -3.6990   0.4053   2.9628
     4.4587

          k =-0.2500-1.0000 0.0000 (  2386 PWs)   bands (ev):

    -8.1256  -7.9806  -7.9748  -7.9604  -7.9316  -3.4261   0.0386   3.6294
     3.7211

          k =-0.5000-1.0000 0.0000 (  2400 PWs)   bands (ev):

    -8.1186  -7.9903  -7.9761  -7.9530  -7.9370  -3.3962   0.1361   3.2370
     3.4216

     highest occupied level (ev):     6.7782

!    total energy              =    -191.02394267 Ry
     estimated scf accuracy    <          8.5E-09 Ry

     The total energy is the sum of the following terms:
     one-electron contribution =    -111.77859051 Ry
     hartree contribution      =      71.69294135 Ry
     xc contribution           =     -57.91912244 Ry
     ewald contribution        =     -93.01917106 Ry

     convergence has been achieved in   9 iterations

     Writing all to output data dir ./SCRATCH/gallium_arsenide.save/

     init_run     :      1.30s CPU      1.61s WALL (       1 calls)
     electrons    :     15.22s CPU     19.75s WALL (       1 calls)

     Called by init_run:
     wfcinit      :      0.56s CPU      0.56s WALL (       1 calls)
     potinit      :      0.09s CPU      0.13s WALL (       1 calls)
     hinit0       :      0.50s CPU      0.51s WALL (       1 calls)

     Called by electrons:
     c_bands      :     10.33s CPU     10.45s WALL (      10 calls)
     sum_band     :      3.16s CPU      5.34s WALL (      10 calls)
     v_of_rho     :      0.64s CPU      0.71s WALL (      10 calls)
     newd         :      1.17s CPU      3.61s WALL (      10 calls)
     mix_rho      :      0.05s CPU      0.05s WALL (      10 calls)

     Called by c_bands:
     init_us_2    :      0.27s CPU      0.30s WALL (     609 calls)
     init_us_2:cp :      0.27s CPU      0.29s WALL (     609 calls)
     cegterg      :      9.72s CPU      9.95s WALL (     290 calls)

     Called by *egterg:
     cdiaghg      :      0.08s CPU      0.06s WALL (     990 calls)
     h_psi        :      8.72s CPU      8.85s WALL (    1048 calls)
     s_psi        :      0.25s CPU      0.36s WALL (    1048 calls)
     g_psi        :      0.03s CPU      0.03s WALL (     729 calls)

     Called by h_psi:
     h_psi:calbec :      0.28s CPU      0.49s WALL (    1048 calls)
     vloc_psi     :      8.09s CPU      7.97s WALL (    1048 calls)
     add_vuspsi   :      0.33s CPU      0.36s WALL (    1048 calls)

     General routines
     calbec       :      0.52s CPU      0.66s WALL (    1338 calls)
     fft          :      0.30s CPU      0.33s WALL (     129 calls)
     ffts         :      0.02s CPU      0.02s WALL (      20 calls)
     fftw         :      8.09s CPU      8.13s WALL (   17658 calls)
     interpolate  :      0.03s CPU      0.04s WALL (      10 calls)


     PWSCF        :     16.59s CPU     21.48s WALL


   This run was terminated on:  11:14:34  11Jun2024            

=------------------------------------------------------------------------------=
   JOB DONE.
=------------------------------------------------------------------------------=
