
     Program PWSCF v.7.2 starts on 11Jun2024 at 11:20:56 

     This program is part of the open-source Quantum ESPRESSO suite
     for quantum simulation of materials; please cite
         "P. Giannozzi et al., J. Phys.:Condens. Matter 21 395502 (2009);
         "P. Giannozzi et al., J. Phys.:Condens. Matter 29 465901 (2017);
         "P. Giannozzi et al., J. Chem. Phys. 152 154105 (2020);
          URL http://www.quantum-espresso.org", 
     in publications or presentations arising from this work. More details at
     http://www.quantum-espresso.org/quote

     Serial version
     8787 MiB available memory on the printing compute node when the environment starts

     Waiting for input...
     Reading input from standard input

     Current dimensions of program PWSCF are:
     Max number of different atomic species (ntypx) = 10
     Max number of k-points (npk) =  40000
     Max angular momentum in pseudopotentials (lmaxx) =  4
     file Ga.pbe-dn-rrkjus_psl.0.2.UPF: wavefunction(s)  4S 3D renormalized


     G-vector sticks info
     --------------------
     sticks:   dense  smooth     PW     G-vecs:    dense   smooth      PW
     Sum         823     313    109                15473     3839     749

     Using Slab Decomposition



     bravais-lattice index     =            2
     lattice parameter (alat)  =      10.8966  a.u.
     unit-cell volume          =     323.4510 (a.u.)^3
     number of atoms/cell      =            2
     number of atomic types    =            2
     number of electrons       =        18.00
     number of Kohn-Sham states=            9
     kinetic-energy cutoff     =      20.0000  Ry
     charge density cutoff     =     200.0000  Ry
     scf convergence threshold =      1.0E-08
     mixing beta               =       0.7000
     number of iterations used =            8  plain     mixing
     Exchange-correlation= PBE
                           (   1   4   3   4   0   0   0)

     celldm(1)=  10.896563  celldm(2)=   0.000000  celldm(3)=   0.000000
     celldm(4)=   0.000000  celldm(5)=   0.000000  celldm(6)=   0.000000

     crystal axes: (cart. coord. in units of alat)
               a(1) = (  -0.500000   0.000000   0.500000 )  
               a(2) = (   0.000000   0.500000   0.500000 )  
               a(3) = (  -0.500000   0.500000   0.000000 )  

     reciprocal axes: (cart. coord. in units 2 pi/alat)
               b(1) = ( -1.000000 -1.000000  1.000000 )  
               b(2) = (  1.000000  1.000000  1.000000 )  
               b(3) = ( -1.000000  1.000000 -1.000000 )  


     PseudoPot. # 1 for Ga read from file:
     /home/paolo/project_labqsm/pseudopotentials/Ga.pbe-dn-rrkjus_psl.0.2.UPF
     MD5 check sum: ffdfce4fe0c152725d7fa40f12f9e9e5
     Pseudo is Ultrasoft + core correction, Zval = 13.0
     Generated using "atomic" code by A. Dal Corso  v.5.0.2 svn rev. 9415
     Using radial grid of 1205 points,  6 beta functions with: 
                l(1) =   0
                l(2) =   0
                l(3) =   1
                l(4) =   1
                l(5) =   2
                l(6) =   2
     Q(r) pseudized with 0 coefficients 


     PseudoPot. # 2 for As read from file:
     /home/paolo/project_labqsm/pseudopotentials/As.pbe-n-rrkjus_psl.0.2.UPF
     MD5 check sum: f98050c7212d27f7cb33035312670de9
     Pseudo is Ultrasoft + core correction, Zval =  5.0
     Generated using "atomic" code by A. Dal Corso  v.5.0.2 svn rev. 9415
     Using radial grid of 1209 points,  4 beta functions with: 
                l(1) =   0
                l(2) =   0
                l(3) =   1
                l(4) =   1
     Q(r) pseudized with 0 coefficients 


     atomic species   valence    mass     pseudopotential
        Ga            13.00    69.72300     Ga( 1.00)
        As             5.00    74.92200     As( 1.00)

     24 Sym. Ops. (no inversion) found



   Cartesian axes

     site n.     atom                  positions (alat units)
         1           Ga  tau(   1) = (   0.0000000   0.0000000   0.0000000  )
         2           As  tau(   2) = (   0.2500000   0.2500000   0.2500000  )

     number of k points=    29
                       cart. coord. in units 2pi/alat
        k(    1) = (   0.0000000   0.0000000   0.0000000), wk =   0.0039062
        k(    2) = (  -0.1250000   0.1250000  -0.1250000), wk =   0.0312500
        k(    3) = (  -0.2500000   0.2500000  -0.2500000), wk =   0.0312500
        k(    4) = (  -0.3750000   0.3750000  -0.3750000), wk =   0.0312500
        k(    5) = (   0.5000000  -0.5000000   0.5000000), wk =   0.0156250
        k(    6) = (   0.0000000   0.2500000   0.0000000), wk =   0.0234375
        k(    7) = (  -0.1250000   0.3750000  -0.1250000), wk =   0.0937500
        k(    8) = (  -0.2500000   0.5000000  -0.2500000), wk =   0.0937500
        k(    9) = (   0.6250000  -0.3750000   0.6250000), wk =   0.0937500
        k(   10) = (   0.5000000  -0.2500000   0.5000000), wk =   0.0937500
        k(   11) = (   0.3750000  -0.1250000   0.3750000), wk =   0.0937500
        k(   12) = (   0.2500000   0.0000000   0.2500000), wk =   0.0468750
        k(   13) = (   0.0000000   0.5000000   0.0000000), wk =   0.0234375
        k(   14) = (  -0.1250000   0.6250000  -0.1250000), wk =   0.0937500
        k(   15) = (   0.7500000  -0.2500000   0.7500000), wk =   0.0937500
        k(   16) = (   0.6250000  -0.1250000   0.6250000), wk =   0.0937500
        k(   17) = (   0.5000000   0.0000000   0.5000000), wk =   0.0468750
        k(   18) = (   0.0000000   0.7500000   0.0000000), wk =   0.0234375
        k(   19) = (   0.8750000  -0.1250000   0.8750000), wk =   0.0937500
        k(   20) = (   0.7500000   0.0000000   0.7500000), wk =   0.0468750
        k(   21) = (   0.0000000  -1.0000000   0.0000000), wk =   0.0117188
        k(   22) = (  -0.2500000   0.5000000   0.0000000), wk =   0.0937500
        k(   23) = (   0.6250000  -0.3750000   0.8750000), wk =   0.1875000
        k(   24) = (   0.5000000  -0.2500000   0.7500000), wk =   0.0937500
        k(   25) = (   0.7500000  -0.2500000   1.0000000), wk =   0.0937500
        k(   26) = (   0.6250000  -0.1250000   0.8750000), wk =   0.1875000
        k(   27) = (   0.5000000   0.0000000   0.7500000), wk =   0.0937500
        k(   28) = (  -0.2500000  -1.0000000   0.0000000), wk =   0.0468750
        k(   29) = (  -0.5000000  -1.0000000   0.0000000), wk =   0.0234375

     Dense  grid:    15473 G-vectors     FFT dimensions: (  36,  36,  36)

     Smooth grid:     3839 G-vectors     FFT dimensions: (  24,  24,  24)

     Estimated max dynamical RAM per process >      58.65 MB

     Check: negative core charge=   -0.000007

     Initial potential from superposition of free atoms

     starting charge      17.9968, renormalised to      18.0000
     Starting wfcs are   13 randomized atomic wfcs

     total cpu time spent up to now is        0.6 secs

     Self-consistent Calculation

     iteration #  1     ecut=    20.00 Ry     beta= 0.70
     Davidson diagonalization with overlap
     ethr =  1.00E-02,  avg # of iterations =  1.3

     Threshold (ethr) on eigenvalues was too large:
     Diagonalizing with lowered threshold

     Davidson diagonalization with overlap
     ethr =  4.02E-04,  avg # of iterations =  1.7

     total cpu time spent up to now is        1.2 secs

     total energy              =    -190.65552939 Ry
     estimated scf accuracy    <       0.08118974 Ry

     iteration #  2     ecut=    20.00 Ry     beta= 0.70
     Davidson diagonalization with overlap
     ethr =  4.51E-04,  avg # of iterations =  2.1

     total cpu time spent up to now is        1.6 secs

     total energy              =    -190.67990004 Ry
     estimated scf accuracy    <       0.02221585 Ry

     iteration #  3     ecut=    20.00 Ry     beta= 0.70
     Davidson diagonalization with overlap
     ethr =  1.23E-04,  avg # of iterations =  2.0

     total cpu time spent up to now is        2.0 secs

     total energy              =    -190.68385521 Ry
     estimated scf accuracy    <       0.00043481 Ry

     iteration #  4     ecut=    20.00 Ry     beta= 0.70
     Davidson diagonalization with overlap
     ethr =  2.42E-06,  avg # of iterations =  4.2

     total cpu time spent up to now is        2.4 secs

     total energy              =    -190.68407389 Ry
     estimated scf accuracy    <       0.00031818 Ry

     iteration #  5     ecut=    20.00 Ry     beta= 0.70
     Davidson diagonalization with overlap
     ethr =  1.77E-06,  avg # of iterations =  1.9

     total cpu time spent up to now is        2.7 secs

     total energy              =    -190.68401978 Ry
     estimated scf accuracy    <       0.00009608 Ry

     iteration #  6     ecut=    20.00 Ry     beta= 0.70
     Davidson diagonalization with overlap
     ethr =  5.34E-07,  avg # of iterations =  3.0

     total cpu time spent up to now is        3.1 secs

     total energy              =    -190.68405945 Ry
     estimated scf accuracy    <       0.00003811 Ry

     iteration #  7     ecut=    20.00 Ry     beta= 0.70
     Davidson diagonalization with overlap
     ethr =  2.12E-07,  avg # of iterations =  2.0

     total cpu time spent up to now is        3.5 secs

     total energy              =    -190.68406403 Ry
     estimated scf accuracy    <       0.00000100 Ry

     iteration #  8     ecut=    20.00 Ry     beta= 0.70
     Davidson diagonalization with overlap
     ethr =  5.53E-09,  avg # of iterations =  4.1

     total cpu time spent up to now is        3.9 secs

     total energy              =    -190.68406480 Ry
     estimated scf accuracy    <       0.00000049 Ry

     iteration #  9     ecut=    20.00 Ry     beta= 0.70
     Davidson diagonalization with overlap
     ethr =  2.74E-09,  avg # of iterations =  2.0

     total cpu time spent up to now is        4.3 secs

     total energy              =    -190.68406478 Ry
     estimated scf accuracy    <       0.00000008 Ry

     iteration # 10     ecut=    20.00 Ry     beta= 0.70
     Davidson diagonalization with overlap
     ethr =  4.58E-10,  avg # of iterations =  3.4

     total cpu time spent up to now is        4.6 secs

     total energy              =    -190.68406482 Ry
     estimated scf accuracy    <       0.00000002 Ry

     iteration # 11     ecut=    20.00 Ry     beta= 0.70
     Davidson diagonalization with overlap
     ethr =  9.99E-11,  avg # of iterations =  2.0

     total cpu time spent up to now is        5.0 secs

     End of self-consistent calculation

          k = 0.0000 0.0000 0.0000 (   531 PWs)   bands (ev):

    -9.3216  -9.3216  -9.3216  -9.2108  -9.2108  -6.2292   6.0695   6.0695
     6.0695

          k =-0.1250 0.1250-0.1250 (   507 PWs)   bands (ev):

    -9.2359  -9.2359  -9.2170  -9.0735  -9.0735  -6.0661   4.0722   5.8580
     5.8580

          k =-0.2500 0.2500-0.2500 (   483 PWs)   bands (ev):

    -9.1120  -9.1120  -9.0941  -8.9677  -8.9677  -5.6096   2.0458   5.4555
     5.4555

          k =-0.3750 0.3750-0.3750 (   492 PWs)   bands (ev):

    -9.2220  -9.1263  -9.1263  -9.0098  -9.0098  -5.0078   0.4348   5.1417
     5.1417

          k = 0.5000-0.5000 0.5000 (   476 PWs)   bands (ev):

    -9.0993  -9.0993  -9.0900  -8.8886  -8.8886  -4.6710  -0.2442   5.0286
     5.0286

          k = 0.0000 0.2500 0.0000 (   504 PWs)   bands (ev):

    -9.2461  -9.1553  -9.1553  -9.1105  -9.1066  -6.0116   3.9993   5.4782
     5.4782

          k =-0.1250 0.3750-0.1250 (   491 PWs)   bands (ev):

    -9.1930  -9.1471  -9.0942  -9.0293  -8.9958  -5.6502   2.4850   4.9916
     5.0293

          k =-0.2500 0.5000-0.2500 (   492 PWs)   bands (ev):

    -9.2106  -9.1274  -9.1095  -9.0533  -8.9800  -5.0800   0.8749   4.4222
     4.7587

          k = 0.6250-0.3750 0.6250 (   481 PWs)   bands (ev):

    -9.1458  -9.1107  -9.1020  -8.9437  -8.8841  -4.6023  -0.1144   4.0177
     4.7481

          k = 0.5000-0.2500 0.5000 (   493 PWs)   bands (ev):

    -9.1963  -9.1649  -9.1376  -9.0337  -8.9707  -4.7216   0.1129   3.8965
     4.9923

          k = 0.3750-0.1250 0.3750 (   495 PWs)   bands (ev):

    -9.1941  -9.1868  -9.1270  -9.0323  -9.0201  -5.2851   1.3761   4.1279
     5.4139

          k = 0.2500 0.0000 0.2500 (   503 PWs)   bands (ev):

    -9.2672  -9.1732  -9.1603  -9.0802  -9.0704  -5.8039   2.9498   4.8327
     5.8155

          k = 0.0000 0.5000 0.0000 (   480 PWs)   bands (ev):

    -9.1697  -9.0187  -8.9946  -8.9946  -8.9941  -5.3949   2.0194   4.5285
     4.5285

          k =-0.1250 0.6250-0.1250 (   485 PWs)   bands (ev):

    -9.1924  -9.0527  -9.0480  -9.0338  -8.9884  -4.9084   0.9382   3.8502
     4.2216

          k = 0.7500-0.2500 0.7500 (   481 PWs)   bands (ev):

    -9.1919  -9.0555  -9.0445  -9.0124  -8.9047  -4.4055   0.0380   3.0787
     4.2038

          k = 0.6250-0.1250 0.6250 (   486 PWs)   bands (ev):

    -9.1524  -9.0849  -9.0768  -9.0141  -9.0071  -4.3288  -0.0708   2.6945
     4.4770

          k = 0.5000 0.0000 0.5000 (   489 PWs)   bands (ev):

    -9.1488  -9.1153  -9.0990  -9.0513  -9.0029  -4.7673   0.6076   2.9698
     4.9575

          k = 0.0000 0.7500 0.0000 (   484 PWs)   bands (ev):

    -9.2213  -9.0324  -9.0324  -9.0282  -8.9948  -4.5397   0.3386   3.8507
     3.8507

          k = 0.8750-0.1250 0.8750 (   481 PWs)   bands (ev):

    -9.2088  -9.0880  -9.0243  -8.9911  -8.9272  -4.1481  -0.2285   3.2107
     3.7708

          k = 0.7500 0.0000 0.7500 (   492 PWs)   bands (ev):

    -9.2485  -9.1186  -9.0783  -9.0443  -9.0215  -4.0517  -0.2963   2.5201
     4.0009

          k = 0.0000-1.0000 0.0000 (   468 PWs)   bands (ev):

    -9.1329  -9.0679  -8.9220  -8.8912  -8.8912  -4.0119  -0.4659   3.6127
     3.6127

          k =-0.2500 0.5000 0.0000 (   488 PWs)   bands (ev):

    -9.1875  -9.1196  -9.0565  -9.0363  -8.9805  -5.2231   1.4903   3.8720
     4.8811

          k = 0.6250-0.3750 0.8750 (   488 PWs)   bands (ev):

    -9.1954  -9.0974  -9.0829  -9.0363  -8.9789  -4.6675   0.3889   3.2462
     4.4844

          k = 0.5000-0.2500 0.7500 (   484 PWs)   bands (ev):

    -9.1512  -9.1049  -9.0583  -9.0272  -8.9504  -4.3649  -0.1373   3.0721
     4.3008

          k = 0.7500-0.2500 1.0000 (   486 PWs)   bands (ev):

    -9.2140  -9.0727  -9.0605  -9.0285  -8.9819  -4.4443   0.2202   3.2722
     3.8035

          k = 0.6250-0.1250 0.8750 (   486 PWs)   bands (ev):

    -9.2112  -9.0882  -9.0764  -9.0245  -8.9578  -4.1084  -0.2084   2.6967
     3.6401

          k = 0.5000 0.0000 0.7500 (   483 PWs)   bands (ev):

    -9.1733  -9.0981  -9.0293  -9.0015  -8.9672  -4.2287  -0.0557   2.5641
     3.9549

          k =-0.2500-1.0000 0.0000 (   484 PWs)   bands (ev):

    -9.2366  -9.0974  -9.0757  -8.9711  -8.9429  -3.9929  -0.3881   3.1791
     3.2797

          k =-0.5000-1.0000 0.0000 (   488 PWs)   bands (ev):

    -9.2211  -9.1462  -9.1062  -9.0015  -8.9351  -3.9722  -0.3009   2.8141
     3.0105

     highest occupied level (ev):     6.0695

!    total energy              =    -190.68406482 Ry
     estimated scf accuracy    <          2.7E-09 Ry

     The total energy is the sum of the following terms:
     one-electron contribution =    -113.87649103 Ry
     hartree contribution      =      72.05459815 Ry
     xc contribution           =     -57.66690616 Ry
     ewald contribution        =     -91.19526578 Ry

     convergence has been achieved in  11 iterations

     Writing all to output data dir ./SCRATCH/gallium_arsenide.save/

     init_run     :      0.42s CPU      0.49s WALL (       1 calls)
     electrons    :      3.22s CPU      4.40s WALL (       1 calls)

     Called by init_run:
     wfcinit      :      0.09s CPU      0.10s WALL (       1 calls)
     potinit      :      0.00s CPU      0.02s WALL (       1 calls)
     hinit0       :      0.27s CPU      0.28s WALL (       1 calls)

     Called by electrons:
     c_bands      :      2.17s CPU      2.38s WALL (      12 calls)
     sum_band     :      0.69s CPU      1.17s WALL (      12 calls)
     v_of_rho     :      0.08s CPU      0.16s WALL (      12 calls)
     newd         :      0.27s CPU      0.76s WALL (      12 calls)
     mix_rho      :      0.02s CPU      0.01s WALL (      12 calls)

     Called by c_bands:
     init_us_2    :      0.06s CPU      0.08s WALL (     725 calls)
     init_us_2:cp :      0.06s CPU      0.08s WALL (     725 calls)
     cegterg      :      2.06s CPU      2.21s WALL (     348 calls)

     Called by *egterg:
     cdiaghg      :      0.08s CPU      0.07s WALL (    1182 calls)
     h_psi        :      1.77s CPU      1.82s WALL (    1240 calls)
     s_psi        :      0.09s CPU      0.09s WALL (    1240 calls)
     g_psi        :      0.00s CPU      0.01s WALL (     863 calls)

     Called by h_psi:
     h_psi:calbec :      0.20s CPU      0.13s WALL (    1240 calls)
     vloc_psi     :      1.50s CPU      1.58s WALL (    1240 calls)
     add_vuspsi   :      0.06s CPU      0.09s WALL (    1240 calls)

     General routines
     calbec       :      0.27s CPU      0.16s WALL (    1588 calls)
     fft          :      0.08s CPU      0.07s WALL (     155 calls)
     ffts         :      0.00s CPU      0.00s WALL (      24 calls)
     fftw         :      1.48s CPU      1.54s WALL (   20964 calls)
     interpolate  :      0.05s CPU      0.01s WALL (      12 calls)


     PWSCF        :      3.72s CPU      5.00s WALL


   This run was terminated on:  11:21: 1  11Jun2024            

=------------------------------------------------------------------------------=
   JOB DONE.
=------------------------------------------------------------------------------=
