
     Program PWSCF v.7.2 starts on 25May2024 at 12:17:22 

     This program is part of the open-source Quantum ESPRESSO suite
     for quantum simulation of materials; please cite
         "P. Giannozzi et al., J. Phys.:Condens. Matter 21 395502 (2009);
         "P. Giannozzi et al., J. Phys.:Condens. Matter 29 465901 (2017);
         "P. Giannozzi et al., J. Chem. Phys. 152 154105 (2020);
          URL http://www.quantum-espresso.org", 
     in publications or presentations arising from this work. More details at
     http://www.quantum-espresso.org/quote

     Serial version
     8181 MiB available memory on the printing compute node when the environment starts

     Waiting for input...
     Reading input from standard input

     Current dimensions of program PWSCF are:
     Max number of different atomic species (ntypx) = 10
     Max number of k-points (npk) =  40000
     Max angular momentum in pseudopotentials (lmaxx) =  4


     G-vector sticks info
     --------------------
     sticks:   dense  smooth     PW     G-vecs:    dense   smooth      PW
     Sum        1285    1285    379                30923    30923    4957

     Using Slab Decomposition



     bravais-lattice index     =            2
     lattice parameter (alat)  =      10.8966  a.u.
     unit-cell volume          =     323.4510 (a.u.)^3
     number of atoms/cell      =            2
     number of atomic types    =            2
     number of electrons       =         8.00
     number of Kohn-Sham states=            4
     kinetic-energy cutoff     =      80.0000  Ry
     charge density cutoff     =     320.0000  Ry
     scf convergence threshold =      1.0E-08
     mixing beta               =       0.7000
     number of iterations used =            8  plain     mixing
     Exchange-correlation= SLA  PZ   NOGX NOGC
                           (   1   1   0   0   0   0   0)

     celldm(1)=  10.896563  celldm(2)=   0.000000  celldm(3)=   0.000000
     celldm(4)=   0.000000  celldm(5)=   0.000000  celldm(6)=   0.000000

     crystal axes: (cart. coord. in units of alat)
               a(1) = (  -0.500000   0.000000   0.500000 )  
               a(2) = (   0.000000   0.500000   0.500000 )  
               a(3) = (  -0.500000   0.500000   0.000000 )  

     reciprocal axes: (cart. coord. in units 2 pi/alat)
               b(1) = ( -1.000000 -1.000000  1.000000 )  
               b(2) = (  1.000000  1.000000  1.000000 )  
               b(3) = ( -1.000000  1.000000 -1.000000 )  


     PseudoPot. # 1 for Ga read from file:
     /home/paolo/project_labqsm/pseudopotentials/Ga.pz-bhs.UPF
     MD5 check sum: 09b06f4702dea281feaf053846378b49
     Pseudo is Norm-conserving, Zval =  3.0
     Generated by new atomic code, or converted to UPF format
     Using radial grid of  523 points,  2 beta functions with: 
                l(1) =   0
                l(2) =   1

     PseudoPot. # 2 for As read from file:
     /home/paolo/project_labqsm/pseudopotentials/As.pz-bhs.UPF
     MD5 check sum: d67708448008dff3ec15a9356ed645c7
     Pseudo is Norm-conserving, Zval =  5.0
     Generated by new atomic code, or converted to UPF format
     Using radial grid of  525 points,  2 beta functions with: 
                l(1) =   0
                l(2) =   1

     atomic species   valence    mass     pseudopotential
        Ga             3.00    69.72300     Ga( 1.00)
        As             5.00    74.92200     As( 1.00)

     24 Sym. Ops. (no inversion) found



   Cartesian axes

     site n.     atom                  positions (alat units)
         1           Ga  tau(   1) = (   0.0000000   0.0000000   0.0000000  )
         2           As  tau(   2) = (   0.2500000   0.2500000   0.2500000  )

     number of k points=    29
                       cart. coord. in units 2pi/alat
        k(    1) = (   0.0000000   0.0000000   0.0000000), wk =   0.0039062
        k(    2) = (  -0.1250000   0.1250000  -0.1250000), wk =   0.0312500
        k(    3) = (  -0.2500000   0.2500000  -0.2500000), wk =   0.0312500
        k(    4) = (  -0.3750000   0.3750000  -0.3750000), wk =   0.0312500
        k(    5) = (   0.5000000  -0.5000000   0.5000000), wk =   0.0156250
        k(    6) = (   0.0000000   0.2500000   0.0000000), wk =   0.0234375
        k(    7) = (  -0.1250000   0.3750000  -0.1250000), wk =   0.0937500
        k(    8) = (  -0.2500000   0.5000000  -0.2500000), wk =   0.0937500
        k(    9) = (   0.6250000  -0.3750000   0.6250000), wk =   0.0937500
        k(   10) = (   0.5000000  -0.2500000   0.5000000), wk =   0.0937500
        k(   11) = (   0.3750000  -0.1250000   0.3750000), wk =   0.0937500
        k(   12) = (   0.2500000   0.0000000   0.2500000), wk =   0.0468750
        k(   13) = (   0.0000000   0.5000000   0.0000000), wk =   0.0234375
        k(   14) = (  -0.1250000   0.6250000  -0.1250000), wk =   0.0937500
        k(   15) = (   0.7500000  -0.2500000   0.7500000), wk =   0.0937500
        k(   16) = (   0.6250000  -0.1250000   0.6250000), wk =   0.0937500
        k(   17) = (   0.5000000   0.0000000   0.5000000), wk =   0.0468750
        k(   18) = (   0.0000000   0.7500000   0.0000000), wk =   0.0234375
        k(   19) = (   0.8750000  -0.1250000   0.8750000), wk =   0.0937500
        k(   20) = (   0.7500000   0.0000000   0.7500000), wk =   0.0468750
        k(   21) = (   0.0000000  -1.0000000   0.0000000), wk =   0.0117188
        k(   22) = (  -0.2500000   0.5000000   0.0000000), wk =   0.0937500
        k(   23) = (   0.6250000  -0.3750000   0.8750000), wk =   0.1875000
        k(   24) = (   0.5000000  -0.2500000   0.7500000), wk =   0.0937500
        k(   25) = (   0.7500000  -0.2500000   1.0000000), wk =   0.0937500
        k(   26) = (   0.6250000  -0.1250000   0.8750000), wk =   0.1875000
        k(   27) = (   0.5000000   0.0000000   0.7500000), wk =   0.0937500
        k(   28) = (  -0.2500000  -1.0000000   0.0000000), wk =   0.0468750
        k(   29) = (  -0.5000000  -1.0000000   0.0000000), wk =   0.0234375

     Dense  grid:    30923 G-vectors     FFT dimensions: (  45,  45,  45)

     Estimated max dynamical RAM per process >      28.90 MB

     Initial potential from superposition of free atoms

     starting charge       7.9979, renormalised to       8.0000
     Starting wfcs are    8 randomized atomic wfcs

     total cpu time spent up to now is        0.6 secs

     Self-consistent Calculation

     iteration #  1     ecut=    80.00 Ry     beta= 0.70
     Davidson diagonalization with overlap
     ethr =  1.00E-02,  avg # of iterations =  1.3

     Threshold (ethr) on eigenvalues was too large:
     Diagonalizing with lowered threshold

     Davidson diagonalization with overlap
     ethr =  4.55E-04,  avg # of iterations =  3.0

     total cpu time spent up to now is        1.9 secs

     total energy              =     -17.31008189 Ry
     estimated scf accuracy    <       0.03973643 Ry

     iteration #  2     ecut=    80.00 Ry     beta= 0.70
     Davidson diagonalization with overlap
     ethr =  4.97E-04,  avg # of iterations =  2.0

     total cpu time spent up to now is        2.6 secs

     total energy              =     -17.31670001 Ry
     estimated scf accuracy    <       0.00289085 Ry

     iteration #  3     ecut=    80.00 Ry     beta= 0.70
     Davidson diagonalization with overlap
     ethr =  3.61E-05,  avg # of iterations =  2.8

     total cpu time spent up to now is        3.4 secs

     total energy              =     -17.31733919 Ry
     estimated scf accuracy    <       0.00049842 Ry

     iteration #  4     ecut=    80.00 Ry     beta= 0.70
     Davidson diagonalization with overlap
     ethr =  6.23E-06,  avg # of iterations =  3.6

     total cpu time spent up to now is        4.2 secs

     total energy              =     -17.31767983 Ry
     estimated scf accuracy    <       0.00024533 Ry

     iteration #  5     ecut=    80.00 Ry     beta= 0.70
     Davidson diagonalization with overlap
     ethr =  3.07E-06,  avg # of iterations =  1.4

     total cpu time spent up to now is        4.8 secs

     total energy              =     -17.31779783 Ry
     estimated scf accuracy    <       0.00025174 Ry

     iteration #  6     ecut=    80.00 Ry     beta= 0.70
     Davidson diagonalization with overlap
     ethr =  3.07E-06,  avg # of iterations =  1.7

     total cpu time spent up to now is        5.4 secs

     total energy              =     -17.31744431 Ry
     estimated scf accuracy    <       0.00054736 Ry

     iteration #  7     ecut=    80.00 Ry     beta= 0.70
     Davidson diagonalization with overlap
     ethr =  3.07E-06,  avg # of iterations =  6.1

     total cpu time spent up to now is        6.7 secs

     total energy              =     -17.31775055 Ry
     estimated scf accuracy    <       0.00106432 Ry

     iteration #  8     ecut=    80.00 Ry     beta= 0.70
     Davidson diagonalization with overlap
     ethr =  3.07E-06,  avg # of iterations =  1.1

     total cpu time spent up to now is        7.2 secs

     total energy              =     -17.31776275 Ry
     estimated scf accuracy    <       0.00056371 Ry

     iteration #  9     ecut=    80.00 Ry     beta= 0.70
     Davidson diagonalization with overlap
     ethr =  3.07E-06,  avg # of iterations =  1.0

     total cpu time spent up to now is        7.7 secs

     total energy              =     -17.31750050 Ry
     estimated scf accuracy    <       0.00054921 Ry

     iteration # 10     ecut=    80.00 Ry     beta= 0.70
     Davidson diagonalization with overlap
     ethr =  3.07E-06,  avg # of iterations =  2.8

     total cpu time spent up to now is        8.5 secs

     total energy              =     -17.31758532 Ry
     estimated scf accuracy    <       0.00002175 Ry

     iteration # 11     ecut=    80.00 Ry     beta= 0.70
     Davidson diagonalization with overlap
     ethr =  2.72E-07,  avg # of iterations =  5.1

     total cpu time spent up to now is        9.5 secs

     total energy              =     -17.31759929 Ry
     estimated scf accuracy    <       0.00000332 Ry

     iteration # 12     ecut=    80.00 Ry     beta= 0.70
     Davidson diagonalization with overlap
     ethr =  4.15E-08,  avg # of iterations =  6.2

     total cpu time spent up to now is       10.9 secs

     total energy              =     -17.31759524 Ry
     estimated scf accuracy    <       0.00002369 Ry

     iteration # 13     ecut=    80.00 Ry     beta= 0.70
     Davidson diagonalization with overlap
     ethr =  4.15E-08,  avg # of iterations =  5.2

     total cpu time spent up to now is       12.0 secs

     total energy              =     -17.31760116 Ry
     estimated scf accuracy    <       0.00000007 Ry

     iteration # 14     ecut=    80.00 Ry     beta= 0.70
     Davidson diagonalization with overlap
     c_bands:  1 eigenvalues not converged
     ethr =  8.45E-10,  avg # of iterations =  8.8

     total cpu time spent up to now is       13.8 secs

     total energy              =     -17.31759756 Ry
     estimated scf accuracy    <       0.00000713 Ry

     iteration # 15     ecut=    80.00 Ry     beta= 0.70
     Davidson diagonalization with overlap
     ethr =  8.45E-10,  avg # of iterations = 10.0

     total cpu time spent up to now is       15.8 secs

     total energy              =     -17.31759994 Ry
     estimated scf accuracy    <       0.00000256 Ry

     iteration # 16     ecut=    80.00 Ry     beta= 0.70
     Davidson diagonalization with overlap
     ethr =  8.45E-10,  avg # of iterations =  6.1

     total cpu time spent up to now is       17.0 secs

     total energy              =     -17.31759980 Ry
     estimated scf accuracy    <       0.00000049 Ry

     iteration # 17     ecut=    80.00 Ry     beta= 0.70
     Davidson diagonalization with overlap
     ethr =  8.45E-10,  avg # of iterations =  5.9

     total cpu time spent up to now is       18.1 secs

     total energy              =     -17.31760003 Ry
     estimated scf accuracy    <       0.00000003 Ry

     iteration # 18     ecut=    80.00 Ry     beta= 0.70
     Davidson diagonalization with overlap
     ethr =  3.16E-10,  avg # of iterations =  5.7

     total cpu time spent up to now is       19.3 secs

     total energy              =     -17.31759989 Ry
     estimated scf accuracy    <       0.00000038 Ry

     iteration # 19     ecut=    80.00 Ry     beta= 0.70
     Davidson diagonalization with overlap
     ethr =  3.16E-10,  avg # of iterations =  5.6

     total cpu time spent up to now is       20.4 secs

     total energy              =     -17.31759993 Ry
     estimated scf accuracy    <       0.00000002 Ry

     iteration # 20     ecut=    80.00 Ry     beta= 0.70
     Davidson diagonalization with overlap
     ethr =  1.99E-10,  avg # of iterations =  2.3

     total cpu time spent up to now is       21.1 secs

     End of self-consistent calculation

          k = 0.0000 0.0000 0.0000 (  3839 PWs)   bands (ev):

    -8.0571   4.0164   4.0164   4.0164

          k =-0.1250 0.1250-0.1250 (  3882 PWs)   bands (ev):

    -7.9153   2.0577   3.8159   3.8159

          k =-0.2500 0.2500-0.2500 (  3885 PWs)   bands (ev):

    -7.5173   0.0111   3.4333   3.4333

          k =-0.3750 0.3750-0.3750 (  3879 PWs)   bands (ev):

    -6.9899  -1.5771   3.1352   3.1352

          k = 0.5000-0.5000 0.5000 (  3852 PWs)   bands (ev):

    -6.7001  -2.2308   3.0277   3.0277

          k = 0.0000 0.2500 0.0000 (  3879 PWs)   bands (ev):

    -7.8675   1.9832   3.4468   3.4468

          k =-0.1250 0.3750-0.1250 (  3900 PWs)   bands (ev):

    -7.5519   0.4478   2.9761   3.0144

          k =-0.2500 0.5000-0.2500 (  3911 PWs)   bands (ev):

    -7.0518  -1.1474   2.4135   2.7568

          k = 0.6250-0.3750 0.6250 (  3905 PWs)   bands (ev):

    -6.6379  -2.1030   2.0112   2.7513

          k = 0.5000-0.2500 0.5000 (  3911 PWs)   bands (ev):

    -6.7403  -1.8853   1.8901   2.9906

          k = 0.3750-0.1250 0.3750 (  3901 PWs)   bands (ev):

    -7.2321  -0.6546   2.1187   3.3980

          k = 0.2500 0.0000 0.2500 (  3885 PWs)   bands (ev):

    -7.6865   0.9173   2.8136   3.7814

          k = 0.0000 0.5000 0.0000 (  3928 PWs)   bands (ev):

    -7.3269  -0.0250   2.5266   2.5266

          k =-0.1250 0.6250-0.1250 (  3916 PWs)   bands (ev):

    -6.8990  -1.0910   1.8500   2.2309

          k = 0.7500-0.2500 0.7500 (  3905 PWs)   bands (ev):

    -6.4622  -1.9523   1.0707   2.2171

          k = 0.6250-0.1250 0.6250 (  3916 PWs)   bands (ev):

    -6.3981  -2.0504   0.6831   2.4856

          k = 0.5000 0.0000 0.5000 (  3919 PWs)   bands (ev):

    -6.7786  -1.4042   0.9600   2.9548

          k = 0.0000 0.7500 0.0000 (  3940 PWs)   bands (ev):

    -6.5741  -1.6762   1.8704   1.8704

          k = 0.8750-0.1250 0.8750 (  3925 PWs)   bands (ev):

    -6.2360  -2.2088   1.2198   1.7941

          k = 0.7500 0.0000 0.7500 (  3907 PWs)   bands (ev):

    -6.1557  -2.2598   0.5140   2.0198

          k = 0.0000-1.0000 0.0000 (  3892 PWs)   bands (ev):

    -6.1200  -2.4347   1.6401   1.6401

          k =-0.2500 0.5000 0.0000 (  3905 PWs)   bands (ev):

    -7.1772  -0.5450   1.8658   2.8737

          k = 0.6250-0.3750 0.8750 (  3911 PWs)   bands (ev):

    -6.6907  -1.6167   1.2384   2.4847

          k = 0.5000-0.2500 0.7500 (  3906 PWs)   bands (ev):

    -6.4302  -2.1166   1.0616   2.3050

          k = 0.7500-0.2500 1.0000 (  3924 PWs)   bands (ev):

    -6.4930  -1.7816   1.2746   1.8116

          k = 0.6250-0.1250 0.8750 (  3910 PWs)   bands (ev):

    -6.2049  -2.1764   0.6886   1.6480

          k = 0.5000 0.0000 0.7500 (  3910 PWs)   bands (ev):

    -6.3099  -2.0320   0.5537   1.9589

          k =-0.2500-1.0000 0.0000 (  3928 PWs)   bands (ev):

    -6.1039  -2.3508   1.1770   1.3000

          k =-0.5000-1.0000 0.0000 (  3884 PWs)   bands (ev):

    -6.0875  -2.2561   0.7900   1.0282

     highest occupied level (ev):     4.0164

!    total energy              =     -17.31759993 Ry
     estimated scf accuracy    <          3.6E-11 Ry

     The total energy is the sum of the following terms:
     one-electron contribution =       2.27293379 Ry
     hartree contribution      =       1.63661319 Ry
     xc contribution           =      -4.71337125 Ry
     ewald contribution        =     -16.51377566 Ry

     convergence has been achieved in  20 iterations

     Writing all to output data dir ./SCRATCH/gallium_arsenide.save/

     init_run     :      0.53s CPU      0.55s WALL (       1 calls)
     electrons    :     20.22s CPU     20.56s WALL (       1 calls)

     Called by init_run:
     wfcinit      :      0.45s CPU      0.47s WALL (       1 calls)
     potinit      :      0.02s CPU      0.02s WALL (       1 calls)
     hinit0       :      0.03s CPU      0.04s WALL (       1 calls)

     Called by electrons:
     c_bands      :     17.88s CPU     18.12s WALL (      21 calls)
     sum_band     :      2.20s CPU      2.24s WALL (      21 calls)
     v_of_rho     :      0.05s CPU      0.09s WALL (      21 calls)
     mix_rho      :      0.09s CPU      0.10s WALL (      21 calls)

     Called by c_bands:
     init_us_2    :      0.53s CPU      0.47s WALL (    1247 calls)
     init_us_2:cp :      0.53s CPU      0.46s WALL (    1247 calls)
     cegterg      :     17.56s CPU     17.67s WALL (     609 calls)

     Called by *egterg:
     cdiaghg      :      0.05s CPU      0.06s WALL (    3131 calls)
     h_psi        :     16.75s CPU     16.60s WALL (    3189 calls)
     g_psi        :      0.12s CPU      0.09s WALL (    2551 calls)

     Called by h_psi:
     h_psi:calbec :      0.31s CPU      0.36s WALL (    3189 calls)
     vloc_psi     :     16.09s CPU     15.89s WALL (    3189 calls)
     add_vuspsi   :      0.30s CPU      0.26s WALL (    3189 calls)

     General routines
     calbec       :      0.28s CPU      0.35s WALL (    3189 calls)
     fft          :      0.03s CPU      0.07s WALL (      63 calls)
     ffts         :      0.02s CPU      0.03s WALL (      21 calls)
     fftw         :     16.45s CPU     16.31s WALL (   22726 calls)


     PWSCF        :     20.77s CPU     21.15s WALL


   This run was terminated on:  12:17:43  25May2024            

=------------------------------------------------------------------------------=
   JOB DONE.
=------------------------------------------------------------------------------=
