
     Program PWSCF v.7.2 starts on 11Jun2024 at 11:16:50 

     This program is part of the open-source Quantum ESPRESSO suite
     for quantum simulation of materials; please cite
         "P. Giannozzi et al., J. Phys.:Condens. Matter 21 395502 (2009);
         "P. Giannozzi et al., J. Phys.:Condens. Matter 29 465901 (2017);
         "P. Giannozzi et al., J. Chem. Phys. 152 154105 (2020);
          URL http://www.quantum-espresso.org", 
     in publications or presentations arising from this work. More details at
     http://www.quantum-espresso.org/quote

     Serial version
     8913 MiB available memory on the printing compute node when the environment starts

     Waiting for input...
     Reading input from standard input

     Current dimensions of program PWSCF are:
     Max number of different atomic species (ntypx) = 10
     Max number of k-points (npk) =  40000
     Max angular momentum in pseudopotentials (lmaxx) =  4
     file Ga.pbe-dn-rrkjus_psl.0.2.UPF: wavefunction(s)  4S 3D renormalized


     G-vector sticks info
     --------------------
     sticks:   dense  smooth     PW     G-vecs:    dense   smooth      PW
     Sum        2869    1147    349               101333    25605    4111

     Using Slab Decomposition



     bravais-lattice index     =            2
     lattice parameter (alat)  =      10.8966  a.u.
     unit-cell volume          =     323.4510 (a.u.)^3
     number of atoms/cell      =            2
     number of atomic types    =            2
     number of electrons       =        18.00
     number of Kohn-Sham states=            9
     kinetic-energy cutoff     =      70.0000  Ry
     charge density cutoff     =     700.0000  Ry
     scf convergence threshold =      1.0E-08
     mixing beta               =       0.7000
     number of iterations used =            8  plain     mixing
     Exchange-correlation= PBE
                           (   1   4   3   4   0   0   0)

     celldm(1)=  10.896563  celldm(2)=   0.000000  celldm(3)=   0.000000
     celldm(4)=   0.000000  celldm(5)=   0.000000  celldm(6)=   0.000000

     crystal axes: (cart. coord. in units of alat)
               a(1) = (  -0.500000   0.000000   0.500000 )  
               a(2) = (   0.000000   0.500000   0.500000 )  
               a(3) = (  -0.500000   0.500000   0.000000 )  

     reciprocal axes: (cart. coord. in units 2 pi/alat)
               b(1) = ( -1.000000 -1.000000  1.000000 )  
               b(2) = (  1.000000  1.000000  1.000000 )  
               b(3) = ( -1.000000  1.000000 -1.000000 )  


     PseudoPot. # 1 for Ga read from file:
     /home/paolo/project_labqsm/pseudopotentials/Ga.pbe-dn-rrkjus_psl.0.2.UPF
     MD5 check sum: ffdfce4fe0c152725d7fa40f12f9e9e5
     Pseudo is Ultrasoft + core correction, Zval = 13.0
     Generated using "atomic" code by A. Dal Corso  v.5.0.2 svn rev. 9415
     Using radial grid of 1205 points,  6 beta functions with: 
                l(1) =   0
                l(2) =   0
                l(3) =   1
                l(4) =   1
                l(5) =   2
                l(6) =   2
     Q(r) pseudized with 0 coefficients 


     PseudoPot. # 2 for As read from file:
     /home/paolo/project_labqsm/pseudopotentials/As.pbe-n-rrkjus_psl.0.2.UPF
     MD5 check sum: f98050c7212d27f7cb33035312670de9
     Pseudo is Ultrasoft + core correction, Zval =  5.0
     Generated using "atomic" code by A. Dal Corso  v.5.0.2 svn rev. 9415
     Using radial grid of 1209 points,  4 beta functions with: 
                l(1) =   0
                l(2) =   0
                l(3) =   1
                l(4) =   1
     Q(r) pseudized with 0 coefficients 


     atomic species   valence    mass     pseudopotential
        Ga            13.00    69.72300     Ga( 1.00)
        As             5.00    74.92200     As( 1.00)

     24 Sym. Ops. (no inversion) found



   Cartesian axes

     site n.     atom                  positions (alat units)
         1           Ga  tau(   1) = (   0.0000000   0.0000000   0.0000000  )
         2           As  tau(   2) = (   0.2500000   0.2500000   0.2500000  )

     number of k points=    29
                       cart. coord. in units 2pi/alat
        k(    1) = (   0.0000000   0.0000000   0.0000000), wk =   0.0039062
        k(    2) = (  -0.1250000   0.1250000  -0.1250000), wk =   0.0312500
        k(    3) = (  -0.2500000   0.2500000  -0.2500000), wk =   0.0312500
        k(    4) = (  -0.3750000   0.3750000  -0.3750000), wk =   0.0312500
        k(    5) = (   0.5000000  -0.5000000   0.5000000), wk =   0.0156250
        k(    6) = (   0.0000000   0.2500000   0.0000000), wk =   0.0234375
        k(    7) = (  -0.1250000   0.3750000  -0.1250000), wk =   0.0937500
        k(    8) = (  -0.2500000   0.5000000  -0.2500000), wk =   0.0937500
        k(    9) = (   0.6250000  -0.3750000   0.6250000), wk =   0.0937500
        k(   10) = (   0.5000000  -0.2500000   0.5000000), wk =   0.0937500
        k(   11) = (   0.3750000  -0.1250000   0.3750000), wk =   0.0937500
        k(   12) = (   0.2500000   0.0000000   0.2500000), wk =   0.0468750
        k(   13) = (   0.0000000   0.5000000   0.0000000), wk =   0.0234375
        k(   14) = (  -0.1250000   0.6250000  -0.1250000), wk =   0.0937500
        k(   15) = (   0.7500000  -0.2500000   0.7500000), wk =   0.0937500
        k(   16) = (   0.6250000  -0.1250000   0.6250000), wk =   0.0937500
        k(   17) = (   0.5000000   0.0000000   0.5000000), wk =   0.0468750
        k(   18) = (   0.0000000   0.7500000   0.0000000), wk =   0.0234375
        k(   19) = (   0.8750000  -0.1250000   0.8750000), wk =   0.0937500
        k(   20) = (   0.7500000   0.0000000   0.7500000), wk =   0.0468750
        k(   21) = (   0.0000000  -1.0000000   0.0000000), wk =   0.0117188
        k(   22) = (  -0.2500000   0.5000000   0.0000000), wk =   0.0937500
        k(   23) = (   0.6250000  -0.3750000   0.8750000), wk =   0.1875000
        k(   24) = (   0.5000000  -0.2500000   0.7500000), wk =   0.0937500
        k(   25) = (   0.7500000  -0.2500000   1.0000000), wk =   0.0937500
        k(   26) = (   0.6250000  -0.1250000   0.8750000), wk =   0.1875000
        k(   27) = (   0.5000000   0.0000000   0.7500000), wk =   0.0937500
        k(   28) = (  -0.2500000  -1.0000000   0.0000000), wk =   0.0468750
        k(   29) = (  -0.5000000  -1.0000000   0.0000000), wk =   0.0234375

     Dense  grid:   101333 G-vectors     FFT dimensions: (  72,  72,  72)

     Smooth grid:    25605 G-vectors     FFT dimensions: (  45,  45,  45)

     Estimated max dynamical RAM per process >     378.11 MB

     Initial potential from superposition of free atoms

     starting charge      17.9968, renormalised to      18.0000
     Starting wfcs are   13 randomized atomic wfcs

     total cpu time spent up to now is        2.3 secs

     Self-consistent Calculation

     iteration #  1     ecut=    70.00 Ry     beta= 0.70
     Davidson diagonalization with overlap
     ethr =  1.00E-02,  avg # of iterations =  1.4

     Threshold (ethr) on eigenvalues was too large:
     Diagonalizing with lowered threshold

     Davidson diagonalization with overlap
     ethr =  2.83E-04,  avg # of iterations =  2.0

     total cpu time spent up to now is        6.9 secs

     total energy              =    -191.01368999 Ry
     estimated scf accuracy    <       0.04898767 Ry

     iteration #  2     ecut=    70.00 Ry     beta= 0.70
     Davidson diagonalization with overlap
     ethr =  2.72E-04,  avg # of iterations =  2.5

     total cpu time spent up to now is        9.8 secs

     total energy              =    -191.02392925 Ry
     estimated scf accuracy    <       0.01061361 Ry

     iteration #  3     ecut=    70.00 Ry     beta= 0.70
     Davidson diagonalization with overlap
     ethr =  5.90E-05,  avg # of iterations =  2.0

     total cpu time spent up to now is       12.9 secs

     total energy              =    -191.02585689 Ry
     estimated scf accuracy    <       0.00044114 Ry

     iteration #  4     ecut=    70.00 Ry     beta= 0.70
     Davidson diagonalization with overlap
     ethr =  2.45E-06,  avg # of iterations =  3.4

     total cpu time spent up to now is       16.1 secs

     total energy              =    -191.02596593 Ry
     estimated scf accuracy    <       0.00010436 Ry

     iteration #  5     ecut=    70.00 Ry     beta= 0.70
     Davidson diagonalization with overlap
     ethr =  5.80E-07,  avg # of iterations =  1.8

     total cpu time spent up to now is       18.7 secs

     total energy              =    -191.02595616 Ry
     estimated scf accuracy    <       0.00002279 Ry

     iteration #  6     ecut=    70.00 Ry     beta= 0.70
     Davidson diagonalization with overlap
     ethr =  1.27E-07,  avg # of iterations =  3.3

     total cpu time spent up to now is       21.8 secs

     total energy              =    -191.02596576 Ry
     estimated scf accuracy    <       0.00002501 Ry

     iteration #  7     ecut=    70.00 Ry     beta= 0.70
     Davidson diagonalization with overlap
     ethr =  1.27E-07,  avg # of iterations =  2.0

     total cpu time spent up to now is       24.5 secs

     total energy              =    -191.02596701 Ry
     estimated scf accuracy    <       0.00000195 Ry

     iteration #  8     ecut=    70.00 Ry     beta= 0.70
     Davidson diagonalization with overlap
     ethr =  1.08E-08,  avg # of iterations =  3.9

     total cpu time spent up to now is       27.5 secs

     total energy              =    -191.02596784 Ry
     estimated scf accuracy    <       0.00000019 Ry

     iteration #  9     ecut=    70.00 Ry     beta= 0.70
     Davidson diagonalization with overlap
     ethr =  1.04E-09,  avg # of iterations =  2.2

     total cpu time spent up to now is       30.2 secs

     total energy              =    -191.02596780 Ry
     estimated scf accuracy    <       0.00000008 Ry

     iteration # 10     ecut=    70.00 Ry     beta= 0.70
     Davidson diagonalization with overlap
     ethr =  4.28E-10,  avg # of iterations =  2.9

     total cpu time spent up to now is       33.1 secs

     total energy              =    -191.02596783 Ry
     estimated scf accuracy    <       0.00000001 Ry

     iteration # 11     ecut=    70.00 Ry     beta= 0.70
     Davidson diagonalization with overlap
     ethr =  6.87E-11,  avg # of iterations =  2.1

     total cpu time spent up to now is       35.9 secs

     End of self-consistent calculation

          k = 0.0000 0.0000 0.0000 (  3143 PWs)   bands (ev):

    -8.6291  -8.6291  -8.6291  -8.5637  -8.5637  -6.2477   6.0755   6.0755
     6.0755

          k =-0.1250 0.1250-0.1250 (  3197 PWs)   bands (ev):

    -8.6391  -8.6263  -8.6263  -8.5638  -8.5638  -6.0811   4.0704   5.8595
     5.8595

          k =-0.2500 0.2500-0.2500 (  3203 PWs)   bands (ev):

    -8.6615  -8.6200  -8.6200  -8.5632  -8.5632  -5.6168   2.0385   5.4505
     5.4505

          k =-0.3750 0.3750-0.3750 (  3200 PWs)   bands (ev):

    -8.6822  -8.6150  -8.6150  -8.5613  -8.5613  -5.0033   0.4213   5.1325
     5.1325

          k = 0.5000-0.5000 0.5000 (  3178 PWs)   bands (ev):

    -8.6904  -8.6133  -8.6133  -8.5600  -8.5600  -4.6628  -0.2626   5.0179
     5.0179

          k = 0.0000 0.2500 0.0000 (  3203 PWs)   bands (ev):

    -8.6452  -8.6235  -8.6235  -8.5660  -8.5620  -6.0254   3.9990   5.4754
     5.4754

          k =-0.1250 0.3750-0.1250 (  3211 PWs)   bands (ev):

    -8.6633  -8.6182  -8.6170  -8.5677  -8.5604  -5.6582   2.4805   4.9849
     5.0215

          k =-0.2500 0.5000-0.2500 (  3223 PWs)   bands (ev):

    -8.6821  -8.6137  -8.6114  -8.5668  -8.5591  -5.0781   0.8642   4.4132
     4.7475

          k = 0.6250-0.3750 0.6250 (  3195 PWs)   bands (ev):

    -8.6925  -8.6116  -8.6094  -8.5637  -8.5593  -4.5934  -0.1321   4.0074
     4.7359

          k = 0.5000-0.2500 0.5000 (  3188 PWs)   bands (ev):

    -8.6895  -8.6118  -8.6111  -8.5622  -8.5614  -4.7138   0.0971   3.8856
     4.9818

          k = 0.3750-0.1250 0.3750 (  3199 PWs)   bands (ev):

    -8.6742  -8.6163  -8.6145  -8.5651  -8.5613  -5.2867   1.3673   4.1175
     5.4078

          k = 0.2500 0.0000 0.2500 (  3221 PWs)   bands (ev):

    -8.6537  -8.6230  -8.6201  -8.5654  -8.5623  -5.8140   2.9461   4.8253
     5.8153

          k = 0.0000 0.5000 0.0000 (  3207 PWs)   bands (ev):

    -8.6788  -8.6096  -8.6096  -8.5726  -8.5579  -5.4000   2.0155   4.5167
     4.5167

          k =-0.1250 0.6250-0.1250 (  3201 PWs)   bands (ev):

    -8.6938  -8.6044  -8.6029  -8.5745  -8.5562  -4.9065   0.9296   3.8369
     4.2072

          k = 0.7500-0.2500 0.7500 (  3191 PWs)   bands (ev):

    -8.7011  -8.6044  -8.6003  -8.5719  -8.5571  -4.3956   0.0220   3.0660
     4.1886

          k = 0.6250-0.1250 0.6250 (  3189 PWs)   bands (ev):

    -8.6988  -8.6069  -8.6023  -8.5670  -8.5610  -4.3174  -0.0889   2.6818
     4.4631

          k = 0.5000 0.0000 0.5000 (  3190 PWs)   bands (ev):

    -8.6886  -8.6101  -8.6086  -8.5646  -8.5628  -4.7622   0.5950   2.9572
     4.9470

          k = 0.0000 0.7500 0.0000 (  3194 PWs)   bands (ev):

    -8.7075  -8.5952  -8.5952  -8.5800  -8.5538  -4.5337   0.3282   3.8338
     3.8338

          k = 0.8750-0.1250 0.8750 (  3203 PWs)   bands (ev):

    -8.7129  -8.5943  -8.5922  -8.5797  -8.5538  -4.1360  -0.2444   3.1946
     3.7529

          k = 0.7500 0.0000 0.7500 (  3200 PWs)   bands (ev):

    -8.7084  -8.6000  -8.5947  -8.5743  -8.5572  -4.0356  -0.3157   2.5058
     3.9844

          k = 0.0000-1.0000 0.0000 (  3250 PWs)   bands (ev):

    -8.7184  -8.5892  -8.5892  -8.5833  -8.5521  -4.0000  -0.4830   3.5937
     3.5937

          k =-0.2500 0.5000 0.0000 (  3203 PWs)   bands (ev):

    -8.6798  -8.6124  -8.6101  -8.5697  -8.5589  -5.2254   1.4829   3.8599
     4.8718

          k = 0.6250-0.3750 0.8750 (  3188 PWs)   bands (ev):

    -8.6930  -8.6095  -8.6046  -8.5686  -8.5590  -4.6608   0.3754   3.2340
     4.4721

          k = 0.5000-0.2500 0.7500 (  3186 PWs)   bands (ev):

    -8.6980  -8.6089  -8.6025  -8.5666  -8.5600  -4.3539  -0.1558   3.0603
     4.2873

          k = 0.7500-0.2500 1.0000 (  3187 PWs)   bands (ev):

    -8.7039  -8.6015  -8.5967  -8.5756  -8.5558  -4.4357   0.2071   3.2577
     3.7884

          k = 0.6250-0.1250 0.8750 (  3196 PWs)   bands (ev):

    -8.7059  -8.6035  -8.5946  -8.5727  -8.5581  -4.0936  -0.2273   2.6833
     3.6245

          k = 0.5000 0.0000 0.7500 (  3205 PWs)   bands (ev):

    -8.7015  -8.6067  -8.5975  -8.5695  -8.5603  -4.2161  -0.0738   2.5508
     3.9406

          k =-0.2500-1.0000 0.0000 (  3192 PWs)   bands (ev):

    -8.7131  -8.5964  -8.5911  -8.5780  -8.5549  -3.9771  -0.4068   3.1664
     3.2599

          k =-0.5000-1.0000 0.0000 (  3188 PWs)   bands (ev):

    -8.7071  -8.6043  -8.5921  -8.5722  -8.5592  -3.9539  -0.3218   2.8061
     2.9897

     highest occupied level (ev):     6.0755

!    total energy              =    -191.02596783 Ry
     estimated scf accuracy    <          9.1E-12 Ry

     The total energy is the sum of the following terms:
     one-electron contribution =    -114.72165746 Ry
     hartree contribution      =      72.74992854 Ry
     xc contribution           =     -57.85897317 Ry
     ewald contribution        =     -91.19526574 Ry

     convergence has been achieved in  11 iterations

     Writing all to output data dir ./SCRATCH/gallium_arsenide.save/

     init_run     :      1.75s CPU      2.16s WALL (       1 calls)
     electrons    :     26.39s CPU     33.61s WALL (       1 calls)

     Called by init_run:
     wfcinit      :      0.81s CPU      0.83s WALL (       1 calls)
     potinit      :      0.11s CPU      0.22s WALL (       1 calls)
     hinit0       :      0.53s CPU      0.57s WALL (       1 calls)

     Called by electrons:
     c_bands      :     17.25s CPU     17.42s WALL (      12 calls)
     sum_band     :      5.41s CPU      8.94s WALL (      12 calls)
     v_of_rho     :      1.42s CPU      1.84s WALL (      12 calls)
     newd         :      2.42s CPU      5.86s WALL (      12 calls)
     mix_rho      :      0.11s CPU      0.12s WALL (      12 calls)

     Called by c_bands:
     init_us_2    :      0.45s CPU      0.47s WALL (     725 calls)
     init_us_2:cp :      0.45s CPU      0.47s WALL (     725 calls)
     cegterg      :     16.66s CPU     16.63s WALL (     348 calls)

     Called by *egterg:
     cdiaghg      :      0.05s CPU      0.07s WALL (    1176 calls)
     h_psi        :     15.30s CPU     15.03s WALL (    1234 calls)
     s_psi        :      0.48s CPU      0.54s WALL (    1234 calls)
     g_psi        :      0.05s CPU      0.04s WALL (     857 calls)

     Called by h_psi:
     h_psi:calbec :      0.58s CPU      0.77s WALL (    1234 calls)
     vloc_psi     :     14.05s CPU     13.68s WALL (    1234 calls)
     add_vuspsi   :      0.58s CPU      0.54s WALL (    1234 calls)

     General routines
     calbec       :      0.80s CPU      1.03s WALL (    1582 calls)
     fft          :      0.53s CPU      0.71s WALL (     155 calls)
     ffts         :      0.03s CPU      0.03s WALL (      24 calls)
     fftw         :     14.23s CPU     13.93s WALL (   20034 calls)
     interpolate  :      0.05s CPU      0.08s WALL (      12 calls)


     PWSCF        :     28.22s CPU     35.90s WALL


   This run was terminated on:  11:17:26  11Jun2024            

=------------------------------------------------------------------------------=
   JOB DONE.
=------------------------------------------------------------------------------=
