
     Program PWSCF v.7.2 starts on 25May2024 at 12:16:47 

     This program is part of the open-source Quantum ESPRESSO suite
     for quantum simulation of materials; please cite
         "P. Giannozzi et al., J. Phys.:Condens. Matter 21 395502 (2009);
         "P. Giannozzi et al., J. Phys.:Condens. Matter 29 465901 (2017);
         "P. Giannozzi et al., J. Chem. Phys. 152 154105 (2020);
          URL http://www.quantum-espresso.org", 
     in publications or presentations arising from this work. More details at
     http://www.quantum-espresso.org/quote

     Serial version
     8217 MiB available memory on the printing compute node when the environment starts

     Waiting for input...
     Reading input from standard input

     Current dimensions of program PWSCF are:
     Max number of different atomic species (ntypx) = 10
     Max number of k-points (npk) =  40000
     Max angular momentum in pseudopotentials (lmaxx) =  4


     G-vector sticks info
     --------------------
     sticks:   dense  smooth     PW     G-vecs:    dense   smooth      PW
     Sum         649     649    199                11017    11017    1917

     Using Slab Decomposition



     bravais-lattice index     =            2
     lattice parameter (alat)  =      10.8966  a.u.
     unit-cell volume          =     323.4510 (a.u.)^3
     number of atoms/cell      =            2
     number of atomic types    =            2
     number of electrons       =         8.00
     number of Kohn-Sham states=            4
     kinetic-energy cutoff     =      40.0000  Ry
     charge density cutoff     =     160.0000  Ry
     scf convergence threshold =      1.0E-08
     mixing beta               =       0.7000
     number of iterations used =            8  plain     mixing
     Exchange-correlation= SLA  PZ   NOGX NOGC
                           (   1   1   0   0   0   0   0)

     celldm(1)=  10.896563  celldm(2)=   0.000000  celldm(3)=   0.000000
     celldm(4)=   0.000000  celldm(5)=   0.000000  celldm(6)=   0.000000

     crystal axes: (cart. coord. in units of alat)
               a(1) = (  -0.500000   0.000000   0.500000 )  
               a(2) = (   0.000000   0.500000   0.500000 )  
               a(3) = (  -0.500000   0.500000   0.000000 )  

     reciprocal axes: (cart. coord. in units 2 pi/alat)
               b(1) = ( -1.000000 -1.000000  1.000000 )  
               b(2) = (  1.000000  1.000000  1.000000 )  
               b(3) = ( -1.000000  1.000000 -1.000000 )  


     PseudoPot. # 1 for Ga read from file:
     /home/paolo/project_labqsm/pseudopotentials/Ga.pz-bhs.UPF
     MD5 check sum: 09b06f4702dea281feaf053846378b49
     Pseudo is Norm-conserving, Zval =  3.0
     Generated by new atomic code, or converted to UPF format
     Using radial grid of  523 points,  2 beta functions with: 
                l(1) =   0
                l(2) =   1

     PseudoPot. # 2 for As read from file:
     /home/paolo/project_labqsm/pseudopotentials/As.pz-bhs.UPF
     MD5 check sum: d67708448008dff3ec15a9356ed645c7
     Pseudo is Norm-conserving, Zval =  5.0
     Generated by new atomic code, or converted to UPF format
     Using radial grid of  525 points,  2 beta functions with: 
                l(1) =   0
                l(2) =   1

     atomic species   valence    mass     pseudopotential
        Ga             3.00    69.72300     Ga( 1.00)
        As             5.00    74.92200     As( 1.00)

     24 Sym. Ops. (no inversion) found



   Cartesian axes

     site n.     atom                  positions (alat units)
         1           Ga  tau(   1) = (   0.0000000   0.0000000   0.0000000  )
         2           As  tau(   2) = (   0.2500000   0.2500000   0.2500000  )

     number of k points=    29
                       cart. coord. in units 2pi/alat
        k(    1) = (   0.0000000   0.0000000   0.0000000), wk =   0.0039062
        k(    2) = (  -0.1250000   0.1250000  -0.1250000), wk =   0.0312500
        k(    3) = (  -0.2500000   0.2500000  -0.2500000), wk =   0.0312500
        k(    4) = (  -0.3750000   0.3750000  -0.3750000), wk =   0.0312500
        k(    5) = (   0.5000000  -0.5000000   0.5000000), wk =   0.0156250
        k(    6) = (   0.0000000   0.2500000   0.0000000), wk =   0.0234375
        k(    7) = (  -0.1250000   0.3750000  -0.1250000), wk =   0.0937500
        k(    8) = (  -0.2500000   0.5000000  -0.2500000), wk =   0.0937500
        k(    9) = (   0.6250000  -0.3750000   0.6250000), wk =   0.0937500
        k(   10) = (   0.5000000  -0.2500000   0.5000000), wk =   0.0937500
        k(   11) = (   0.3750000  -0.1250000   0.3750000), wk =   0.0937500
        k(   12) = (   0.2500000   0.0000000   0.2500000), wk =   0.0468750
        k(   13) = (   0.0000000   0.5000000   0.0000000), wk =   0.0234375
        k(   14) = (  -0.1250000   0.6250000  -0.1250000), wk =   0.0937500
        k(   15) = (   0.7500000  -0.2500000   0.7500000), wk =   0.0937500
        k(   16) = (   0.6250000  -0.1250000   0.6250000), wk =   0.0937500
        k(   17) = (   0.5000000   0.0000000   0.5000000), wk =   0.0468750
        k(   18) = (   0.0000000   0.7500000   0.0000000), wk =   0.0234375
        k(   19) = (   0.8750000  -0.1250000   0.8750000), wk =   0.0937500
        k(   20) = (   0.7500000   0.0000000   0.7500000), wk =   0.0468750
        k(   21) = (   0.0000000  -1.0000000   0.0000000), wk =   0.0117188
        k(   22) = (  -0.2500000   0.5000000   0.0000000), wk =   0.0937500
        k(   23) = (   0.6250000  -0.3750000   0.8750000), wk =   0.1875000
        k(   24) = (   0.5000000  -0.2500000   0.7500000), wk =   0.0937500
        k(   25) = (   0.7500000  -0.2500000   1.0000000), wk =   0.0937500
        k(   26) = (   0.6250000  -0.1250000   0.8750000), wk =   0.1875000
        k(   27) = (   0.5000000   0.0000000   0.7500000), wk =   0.0937500
        k(   28) = (  -0.2500000  -1.0000000   0.0000000), wk =   0.0468750
        k(   29) = (  -0.5000000  -1.0000000   0.0000000), wk =   0.0234375

     Dense  grid:    11017 G-vectors     FFT dimensions: (  32,  32,  32)

     Estimated max dynamical RAM per process >      10.38 MB

     Initial potential from superposition of free atoms

     starting charge       7.9979, renormalised to       8.0000
     Starting wfcs are    8 randomized atomic wfcs

     total cpu time spent up to now is        0.2 secs

     Self-consistent Calculation

     iteration #  1     ecut=    40.00 Ry     beta= 0.70
     Davidson diagonalization with overlap
     ethr =  1.00E-02,  avg # of iterations =  1.3

     Threshold (ethr) on eigenvalues was too large:
     Diagonalizing with lowered threshold

     Davidson diagonalization with overlap
     ethr =  4.51E-04,  avg # of iterations =  3.3

     total cpu time spent up to now is        0.6 secs

     total energy              =     -17.30985018 Ry
     estimated scf accuracy    <       0.03959170 Ry

     iteration #  2     ecut=    40.00 Ry     beta= 0.70
     Davidson diagonalization with overlap
     ethr =  4.95E-04,  avg # of iterations =  2.0

     total cpu time spent up to now is        0.8 secs

     total energy              =     -17.31621361 Ry
     estimated scf accuracy    <       0.00295957 Ry

     iteration #  3     ecut=    40.00 Ry     beta= 0.70
     Davidson diagonalization with overlap
     ethr =  3.70E-05,  avg # of iterations =  2.4

     total cpu time spent up to now is        1.1 secs

     total energy              =     -17.31672181 Ry
     estimated scf accuracy    <       0.00041126 Ry

     iteration #  4     ecut=    40.00 Ry     beta= 0.70
     Davidson diagonalization with overlap
     ethr =  5.14E-06,  avg # of iterations =  3.4

     total cpu time spent up to now is        1.3 secs

     total energy              =     -17.31701361 Ry
     estimated scf accuracy    <       0.00015982 Ry

     iteration #  5     ecut=    40.00 Ry     beta= 0.70
     Davidson diagonalization with overlap
     ethr =  2.00E-06,  avg # of iterations =  1.8

     total cpu time spent up to now is        1.5 secs

     total energy              =     -17.31705863 Ry
     estimated scf accuracy    <       0.00015731 Ry

     iteration #  6     ecut=    40.00 Ry     beta= 0.70
     Davidson diagonalization with overlap
     ethr =  1.97E-06,  avg # of iterations =  1.4

     total cpu time spent up to now is        1.7 secs

     total energy              =     -17.31689340 Ry
     estimated scf accuracy    <       0.00024063 Ry

     iteration #  7     ecut=    40.00 Ry     beta= 0.70
     Davidson diagonalization with overlap
     ethr =  1.97E-06,  avg # of iterations =  3.8

     total cpu time spent up to now is        2.0 secs

     total energy              =     -17.31700304 Ry
     estimated scf accuracy    <       0.00009057 Ry

     iteration #  8     ecut=    40.00 Ry     beta= 0.70
     Davidson diagonalization with overlap
     ethr =  1.13E-06,  avg # of iterations =  1.2

     total cpu time spent up to now is        2.1 secs

     total energy              =     -17.31699932 Ry
     estimated scf accuracy    <       0.00008452 Ry

     iteration #  9     ecut=    40.00 Ry     beta= 0.70
     Davidson diagonalization with overlap
     ethr =  1.06E-06,  avg # of iterations =  1.0

     total cpu time spent up to now is        2.3 secs

     total energy              =     -17.31699363 Ry
     estimated scf accuracy    <       0.00007386 Ry

     iteration # 10     ecut=    40.00 Ry     beta= 0.70
     Davidson diagonalization with overlap
     ethr =  9.23E-07,  avg # of iterations =  1.0

     total cpu time spent up to now is        2.5 secs

     total energy              =     -17.31698015 Ry
     estimated scf accuracy    <       0.00005936 Ry

     iteration # 11     ecut=    40.00 Ry     beta= 0.70
     Davidson diagonalization with overlap
     ethr =  7.42E-07,  avg # of iterations =  1.3

     total cpu time spent up to now is        2.6 secs

     total energy              =     -17.31696187 Ry
     estimated scf accuracy    <       0.00002838 Ry

     iteration # 12     ecut=    40.00 Ry     beta= 0.70
     Davidson diagonalization with overlap
     ethr =  3.55E-07,  avg # of iterations =  4.3

     total cpu time spent up to now is        2.9 secs

     total energy              =     -17.31696792 Ry
     estimated scf accuracy    <       0.00004062 Ry

     iteration # 13     ecut=    40.00 Ry     beta= 0.70
     Davidson diagonalization with overlap
     ethr =  3.55E-07,  avg # of iterations =  2.0

     total cpu time spent up to now is        3.1 secs

     total energy              =     -17.31697303 Ry
     estimated scf accuracy    <       0.00000182 Ry

     iteration # 14     ecut=    40.00 Ry     beta= 0.70
     Davidson diagonalization with overlap
     ethr =  2.28E-08,  avg # of iterations =  3.5

     total cpu time spent up to now is        3.4 secs

     total energy              =     -17.31697306 Ry
     estimated scf accuracy    <       0.00000136 Ry

     iteration # 15     ecut=    40.00 Ry     beta= 0.70
     Davidson diagonalization with overlap
     ethr =  1.70E-08,  avg # of iterations =  2.2

     total cpu time spent up to now is        3.6 secs

     total energy              =     -17.31697317 Ry
     estimated scf accuracy    <       0.00000016 Ry

     iteration # 16     ecut=    40.00 Ry     beta= 0.70
     Davidson diagonalization with overlap
     c_bands:  1 eigenvalues not converged
     ethr =  2.04E-09,  avg # of iterations =  7.0

     total cpu time spent up to now is        4.0 secs

     total energy              =     -17.31697413 Ry
     estimated scf accuracy    <       0.00000066 Ry

     iteration # 17     ecut=    40.00 Ry     beta= 0.70
     Davidson diagonalization with overlap
     ethr =  2.04E-09,  avg # of iterations =  4.1

     total cpu time spent up to now is        4.3 secs

     total energy              =     -17.31697411 Ry
     estimated scf accuracy    <       0.00000246 Ry

     iteration # 18     ecut=    40.00 Ry     beta= 0.70
     Davidson diagonalization with overlap
     ethr =  2.04E-09,  avg # of iterations =  1.0

     total cpu time spent up to now is        4.4 secs

     total energy              =     -17.31697394 Ry
     estimated scf accuracy    <       0.00000219 Ry

     iteration # 19     ecut=    40.00 Ry     beta= 0.70
     Davidson diagonalization with overlap
     ethr =  2.04E-09,  avg # of iterations =  1.1

     total cpu time spent up to now is        4.6 secs

     total energy              =     -17.31697378 Ry
     estimated scf accuracy    <       0.00000180 Ry

     iteration # 20     ecut=    40.00 Ry     beta= 0.70
     Davidson diagonalization with overlap
     ethr =  2.04E-09,  avg # of iterations =  1.0

     total cpu time spent up to now is        4.8 secs

     total energy              =     -17.31697362 Ry
     estimated scf accuracy    <       0.00000142 Ry

     iteration # 21     ecut=    40.00 Ry     beta= 0.70
     Davidson diagonalization with overlap
     ethr =  2.04E-09,  avg # of iterations =  1.6

     total cpu time spent up to now is        4.9 secs

     total energy              =     -17.31697342 Ry
     estimated scf accuracy    <       0.00000101 Ry

     iteration # 22     ecut=    40.00 Ry     beta= 0.70
     Davidson diagonalization with overlap
     ethr =  2.04E-09,  avg # of iterations =  2.1

     total cpu time spent up to now is        5.2 secs

     total energy              =     -17.31697325 Ry
     estimated scf accuracy    <       0.00000047 Ry

     iteration # 23     ecut=    40.00 Ry     beta= 0.70
     Davidson diagonalization with overlap
     ethr =  2.04E-09,  avg # of iterations =  2.9

     total cpu time spent up to now is        5.4 secs

     total energy              =     -17.31697331 Ry
     estimated scf accuracy    <       0.00000003 Ry

     iteration # 24     ecut=    40.00 Ry     beta= 0.70
     Davidson diagonalization with overlap
     ethr =  3.89E-10,  avg # of iterations =  6.0

     total cpu time spent up to now is        5.8 secs

     total energy              =     -17.31697334 Ry
     estimated scf accuracy    <       0.00000005 Ry

     iteration # 25     ecut=    40.00 Ry     beta= 0.70
     Davidson diagonalization with overlap
     ethr =  3.89E-10,  avg # of iterations =  1.0

     total cpu time spent up to now is        6.0 secs

     total energy              =     -17.31697334 Ry
     estimated scf accuracy    <       0.00000004 Ry

     iteration # 26     ecut=    40.00 Ry     beta= 0.70
     Davidson diagonalization with overlap
     ethr =  3.89E-10,  avg # of iterations =  1.0

     total cpu time spent up to now is        6.1 secs

     total energy              =     -17.31697333 Ry
     estimated scf accuracy    <       0.00000003 Ry

     iteration # 27     ecut=    40.00 Ry     beta= 0.70
     Davidson diagonalization with overlap
     ethr =  3.34E-10,  avg # of iterations =  1.0

     total cpu time spent up to now is        6.3 secs

     End of self-consistent calculation

          k = 0.0000 0.0000 0.0000 (  1411 PWs)   bands (ev):

    -8.0561   4.0160   4.0160   4.0160

          k =-0.1250 0.1250-0.1250 (  1393 PWs)   bands (ev):

    -7.9142   2.0588   3.8156   3.8156

          k =-0.2500 0.2500-0.2500 (  1378 PWs)   bands (ev):

    -7.5159   0.0121   3.4331   3.4331

          k =-0.3750 0.3750-0.3750 (  1392 PWs)   bands (ev):

    -6.9884  -1.5765   3.1349   3.1349

          k = 0.5000-0.5000 0.5000 (  1380 PWs)   bands (ev):

    -6.6983  -2.2303   3.0275   3.0275

          k = 0.0000 0.2500 0.0000 (  1395 PWs)   bands (ev):

    -7.8664   1.9845   3.4466   3.4466

          k =-0.1250 0.3750-0.1250 (  1380 PWs)   bands (ev):

    -7.5505   0.4490   2.9761   3.0142

          k =-0.2500 0.5000-0.2500 (  1382 PWs)   bands (ev):

    -7.0502  -1.1466   2.4136   2.7566

          k = 0.6250-0.3750 0.6250 (  1389 PWs)   bands (ev):

    -6.6361  -2.1025   2.0113   2.7511

          k = 0.5000-0.2500 0.5000 (  1388 PWs)   bands (ev):

    -6.7386  -1.8847   1.8903   2.9904

          k = 0.3750-0.1250 0.3750 (  1378 PWs)   bands (ev):

    -7.2306  -0.6536   2.1187   3.3978

          k = 0.2500 0.0000 0.2500 (  1376 PWs)   bands (ev):

    -7.6851   0.9184   2.8135   3.7811

          k = 0.0000 0.5000 0.0000 (  1387 PWs)   bands (ev):

    -7.3255  -0.0239   2.5264   2.5264

          k =-0.1250 0.6250-0.1250 (  1385 PWs)   bands (ev):

    -6.8973  -1.0900   1.8499   2.2307

          k = 0.7500-0.2500 0.7500 (  1383 PWs)   bands (ev):

    -6.4602  -1.9517   1.0707   2.2170

          k = 0.6250-0.1250 0.6250 (  1384 PWs)   bands (ev):

    -6.3961  -2.0499   0.6831   2.4854

          k = 0.5000 0.0000 0.5000 (  1368 PWs)   bands (ev):

    -6.7766  -1.4034   0.9600   2.9546

          k = 0.0000 0.7500 0.0000 (  1371 PWs)   bands (ev):

    -6.5721  -1.6754   1.8703   1.8703

          k = 0.8750-0.1250 0.8750 (  1376 PWs)   bands (ev):

    -6.2338  -2.2083   1.2198   1.7940

          k = 0.7500 0.0000 0.7500 (  1392 PWs)   bands (ev):

    -6.1537  -2.2594   0.5140   2.0197

          k = 0.0000-1.0000 0.0000 (  1362 PWs)   bands (ev):

    -6.1175  -2.4344   1.6400   1.6400

          k =-0.2500 0.5000 0.0000 (  1371 PWs)   bands (ev):

    -7.1756  -0.5439   1.8658   2.8735

          k = 0.6250-0.3750 0.8750 (  1385 PWs)   bands (ev):

    -6.6889  -1.6160   1.2384   2.4845

          k = 0.5000-0.2500 0.7500 (  1382 PWs)   bands (ev):

    -6.4282  -2.1161   1.0617   2.3049

          k = 0.7500-0.2500 1.0000 (  1377 PWs)   bands (ev):

    -6.4910  -1.7809   1.2746   1.8115

          k = 0.6250-0.1250 0.8750 (  1386 PWs)   bands (ev):

    -6.2028  -2.1760   0.6886   1.6479

          k = 0.5000 0.0000 0.7500 (  1375 PWs)   bands (ev):

    -6.3077  -2.0315   0.5537   1.9588

          k =-0.2500-1.0000 0.0000 (  1382 PWs)   bands (ev):

    -6.1016  -2.3505   1.1770   1.2999

          k =-0.5000-1.0000 0.0000 (  1384 PWs)   bands (ev):

    -6.0853  -2.2557   0.7900   1.0282

     highest occupied level (ev):     4.0160

!    total energy              =     -17.31697333 Ry
     estimated scf accuracy    <          8.5E-09 Ry

     The total energy is the sum of the following terms:
     one-electron contribution =       2.27369196 Ry
     hartree contribution      =       1.63644465 Ry
     xc contribution           =      -4.71333424 Ry
     ewald contribution        =     -16.51377570 Ry

     convergence has been achieved in  27 iterations

     Writing all to output data dir ./SCRATCH/gallium_arsenide.save/

     init_run     :      0.17s CPU      0.18s WALL (       1 calls)
     electrons    :      5.86s CPU      6.11s WALL (       1 calls)

     Called by init_run:
     wfcinit      :      0.14s CPU      0.14s WALL (       1 calls)
     potinit      :      0.00s CPU      0.01s WALL (       1 calls)
     hinit0       :      0.03s CPU      0.03s WALL (       1 calls)

     Called by electrons:
     c_bands      :      4.89s CPU      5.14s WALL (      28 calls)
     sum_band     :      0.86s CPU      0.88s WALL (      28 calls)
     v_of_rho     :      0.06s CPU      0.04s WALL (      28 calls)
     mix_rho      :      0.05s CPU      0.04s WALL (      28 calls)

     Called by c_bands:
     init_us_2    :      0.20s CPU      0.22s WALL (    1653 calls)
     init_us_2:cp :      0.20s CPU      0.22s WALL (    1653 calls)
     cegterg      :      4.78s CPU      4.87s WALL (     812 calls)

     Called by *egterg:
     cdiaghg      :      0.03s CPU      0.04s WALL (    2699 calls)
     h_psi        :      4.50s CPU      4.51s WALL (    2757 calls)
     g_psi        :      0.02s CPU      0.03s WALL (    1916 calls)

     Called by h_psi:
     h_psi:calbec :      0.08s CPU      0.12s WALL (    2757 calls)
     vloc_psi     :      4.20s CPU      4.26s WALL (    2757 calls)
     add_vuspsi   :      0.16s CPU      0.09s WALL (    2757 calls)

     General routines
     calbec       :      0.08s CPU      0.11s WALL (    2757 calls)
     fft          :      0.03s CPU      0.03s WALL (      84 calls)
     ffts         :      0.02s CPU      0.01s WALL (      28 calls)
     fftw         :      4.39s CPU      4.45s WALL (   21962 calls)


     PWSCF        :      6.05s CPU      6.32s WALL


   This run was terminated on:  12:16:53  25May2024            

=------------------------------------------------------------------------------=
   JOB DONE.
=------------------------------------------------------------------------------=
