
     Program PWSCF v.7.2 starts on 25May2024 at 12:14:25 

     This program is part of the open-source Quantum ESPRESSO suite
     for quantum simulation of materials; please cite
         "P. Giannozzi et al., J. Phys.:Condens. Matter 21 395502 (2009);
         "P. Giannozzi et al., J. Phys.:Condens. Matter 29 465901 (2017);
         "P. Giannozzi et al., J. Chem. Phys. 152 154105 (2020);
          URL http://www.quantum-espresso.org", 
     in publications or presentations arising from this work. More details at
     http://www.quantum-espresso.org/quote

     Serial version
     8213 MiB available memory on the printing compute node when the environment starts

     Waiting for input...
     Reading input from standard input

     Current dimensions of program PWSCF are:
     Max number of different atomic species (ntypx) = 10
     Max number of k-points (npk) =  40000
     Max angular momentum in pseudopotentials (lmaxx) =  4


     G-vector sticks info
     --------------------
     sticks:   dense  smooth     PW     G-vecs:    dense   smooth      PW
     Sum         637     637    199                10417    10417    1837

     Using Slab Decomposition



     bravais-lattice index     =            2
     lattice parameter (alat)  =      10.6829  a.u.
     unit-cell volume          =     304.7951 (a.u.)^3
     number of atoms/cell      =            2
     number of atomic types    =            2
     number of electrons       =         8.00
     number of Kohn-Sham states=            4
     kinetic-energy cutoff     =      40.0000  Ry
     charge density cutoff     =     160.0000  Ry
     scf convergence threshold =      1.0E-08
     mixing beta               =       0.7000
     number of iterations used =            8  plain     mixing
     Exchange-correlation= SLA  PZ   NOGX NOGC
                           (   1   1   0   0   0   0   0)

     celldm(1)=  10.682904  celldm(2)=   0.000000  celldm(3)=   0.000000
     celldm(4)=   0.000000  celldm(5)=   0.000000  celldm(6)=   0.000000

     crystal axes: (cart. coord. in units of alat)
               a(1) = (  -0.500000   0.000000   0.500000 )  
               a(2) = (   0.000000   0.500000   0.500000 )  
               a(3) = (  -0.500000   0.500000   0.000000 )  

     reciprocal axes: (cart. coord. in units 2 pi/alat)
               b(1) = ( -1.000000 -1.000000  1.000000 )  
               b(2) = (  1.000000  1.000000  1.000000 )  
               b(3) = ( -1.000000  1.000000 -1.000000 )  


     PseudoPot. # 1 for Ga read from file:
     /home/paolo/project_labqsm/pseudopotentials/Ga.pz-bhs.UPF
     MD5 check sum: 09b06f4702dea281feaf053846378b49
     Pseudo is Norm-conserving, Zval =  3.0
     Generated by new atomic code, or converted to UPF format
     Using radial grid of  523 points,  2 beta functions with: 
                l(1) =   0
                l(2) =   1

     PseudoPot. # 2 for As read from file:
     /home/paolo/project_labqsm/pseudopotentials/As.pz-bhs.UPF
     MD5 check sum: d67708448008dff3ec15a9356ed645c7
     Pseudo is Norm-conserving, Zval =  5.0
     Generated by new atomic code, or converted to UPF format
     Using radial grid of  525 points,  2 beta functions with: 
                l(1) =   0
                l(2) =   1

     atomic species   valence    mass     pseudopotential
        Ga             3.00    69.72300     Ga( 1.00)
        As             5.00    74.92200     As( 1.00)

     24 Sym. Ops. (no inversion) found



   Cartesian axes

     site n.     atom                  positions (alat units)
         1           Ga  tau(   1) = (   0.0000000   0.0000000   0.0000000  )
         2           As  tau(   2) = (   0.2500000   0.2500000   0.2500000  )

     number of k points=    29
                       cart. coord. in units 2pi/alat
        k(    1) = (   0.0000000   0.0000000   0.0000000), wk =   0.0039062
        k(    2) = (  -0.1250000   0.1250000  -0.1250000), wk =   0.0312500
        k(    3) = (  -0.2500000   0.2500000  -0.2500000), wk =   0.0312500
        k(    4) = (  -0.3750000   0.3750000  -0.3750000), wk =   0.0312500
        k(    5) = (   0.5000000  -0.5000000   0.5000000), wk =   0.0156250
        k(    6) = (   0.0000000   0.2500000   0.0000000), wk =   0.0234375
        k(    7) = (  -0.1250000   0.3750000  -0.1250000), wk =   0.0937500
        k(    8) = (  -0.2500000   0.5000000  -0.2500000), wk =   0.0937500
        k(    9) = (   0.6250000  -0.3750000   0.6250000), wk =   0.0937500
        k(   10) = (   0.5000000  -0.2500000   0.5000000), wk =   0.0937500
        k(   11) = (   0.3750000  -0.1250000   0.3750000), wk =   0.0937500
        k(   12) = (   0.2500000   0.0000000   0.2500000), wk =   0.0468750
        k(   13) = (   0.0000000   0.5000000   0.0000000), wk =   0.0234375
        k(   14) = (  -0.1250000   0.6250000  -0.1250000), wk =   0.0937500
        k(   15) = (   0.7500000  -0.2500000   0.7500000), wk =   0.0937500
        k(   16) = (   0.6250000  -0.1250000   0.6250000), wk =   0.0937500
        k(   17) = (   0.5000000   0.0000000   0.5000000), wk =   0.0468750
        k(   18) = (   0.0000000   0.7500000   0.0000000), wk =   0.0234375
        k(   19) = (   0.8750000  -0.1250000   0.8750000), wk =   0.0937500
        k(   20) = (   0.7500000   0.0000000   0.7500000), wk =   0.0468750
        k(   21) = (   0.0000000  -1.0000000   0.0000000), wk =   0.0117188
        k(   22) = (  -0.2500000   0.5000000   0.0000000), wk =   0.0937500
        k(   23) = (   0.6250000  -0.3750000   0.8750000), wk =   0.1875000
        k(   24) = (   0.5000000  -0.2500000   0.7500000), wk =   0.0937500
        k(   25) = (   0.7500000  -0.2500000   1.0000000), wk =   0.0937500
        k(   26) = (   0.6250000  -0.1250000   0.8750000), wk =   0.1875000
        k(   27) = (   0.5000000   0.0000000   0.7500000), wk =   0.0937500
        k(   28) = (  -0.2500000  -1.0000000   0.0000000), wk =   0.0468750
        k(   29) = (  -0.5000000  -1.0000000   0.0000000), wk =   0.0234375

     Dense  grid:    10417 G-vectors     FFT dimensions: (  32,  32,  32)

     Estimated max dynamical RAM per process >       9.94 MB

     Initial potential from superposition of free atoms

     starting charge       7.9979, renormalised to       8.0000
     Starting wfcs are    8 randomized atomic wfcs

     total cpu time spent up to now is        0.2 secs

     Self-consistent Calculation

     iteration #  1     ecut=    40.00 Ry     beta= 0.70
     Davidson diagonalization with overlap
     ethr =  1.00E-02,  avg # of iterations =  1.3

     Threshold (ethr) on eigenvalues was too large:
     Diagonalizing with lowered threshold

     Davidson diagonalization with overlap
     ethr =  4.65E-04,  avg # of iterations =  3.2

     total cpu time spent up to now is        0.6 secs

     total energy              =     -17.31655696 Ry
     estimated scf accuracy    <       0.04120498 Ry

     iteration #  2     ecut=    40.00 Ry     beta= 0.70
     Davidson diagonalization with overlap
     ethr =  5.15E-04,  avg # of iterations =  2.0

     total cpu time spent up to now is        0.8 secs

     total energy              =     -17.32304356 Ry
     estimated scf accuracy    <       0.00277852 Ry

     iteration #  3     ecut=    40.00 Ry     beta= 0.70
     Davidson diagonalization with overlap
     ethr =  3.47E-05,  avg # of iterations =  2.7

     total cpu time spent up to now is        1.0 secs

     total energy              =     -17.32361356 Ry
     estimated scf accuracy    <       0.00042285 Ry

     iteration #  4     ecut=    40.00 Ry     beta= 0.70
     Davidson diagonalization with overlap
     ethr =  5.29E-06,  avg # of iterations =  3.6

     total cpu time spent up to now is        1.3 secs

     total energy              =     -17.32391739 Ry
     estimated scf accuracy    <       0.00015965 Ry

     iteration #  5     ecut=    40.00 Ry     beta= 0.70
     Davidson diagonalization with overlap
     ethr =  2.00E-06,  avg # of iterations =  2.1

     total cpu time spent up to now is        1.5 secs

     total energy              =     -17.32384344 Ry
     estimated scf accuracy    <       0.00024120 Ry

     iteration #  6     ecut=    40.00 Ry     beta= 0.70
     Davidson diagonalization with overlap
     ethr =  2.00E-06,  avg # of iterations =  1.4

     total cpu time spent up to now is        1.7 secs

     total energy              =     -17.32382721 Ry
     estimated scf accuracy    <       0.00007616 Ry

     iteration #  7     ecut=    40.00 Ry     beta= 0.70
     Davidson diagonalization with overlap
     ethr =  9.52E-07,  avg # of iterations =  2.0

     total cpu time spent up to now is        1.9 secs

     total energy              =     -17.32383427 Ry
     estimated scf accuracy    <       0.00001610 Ry

     iteration #  8     ecut=    40.00 Ry     beta= 0.70
     Davidson diagonalization with overlap
     ethr =  2.01E-07,  avg # of iterations =  3.6

     total cpu time spent up to now is        2.1 secs

     total energy              =     -17.32383854 Ry
     estimated scf accuracy    <       0.00000484 Ry

     iteration #  9     ecut=    40.00 Ry     beta= 0.70
     Davidson diagonalization with overlap
     ethr =  6.05E-08,  avg # of iterations =  2.4

     total cpu time spent up to now is        2.3 secs

     total energy              =     -17.32383952 Ry
     estimated scf accuracy    <       0.00000228 Ry

     iteration # 10     ecut=    40.00 Ry     beta= 0.70
     Davidson diagonalization with overlap
     ethr =  2.85E-08,  avg # of iterations =  1.3

     total cpu time spent up to now is        2.5 secs

     total energy              =     -17.32383917 Ry
     estimated scf accuracy    <       0.00000198 Ry

     iteration # 11     ecut=    40.00 Ry     beta= 0.70
     Davidson diagonalization with overlap
     ethr =  2.48E-08,  avg # of iterations =  1.7

     total cpu time spent up to now is        2.7 secs

     total energy              =     -17.32383920 Ry
     estimated scf accuracy    <       0.00000087 Ry

     iteration # 12     ecut=    40.00 Ry     beta= 0.70
     Davidson diagonalization with overlap
     ethr =  1.09E-08,  avg # of iterations =  1.7

     total cpu time spent up to now is        2.8 secs

     total energy              =     -17.32383895 Ry
     estimated scf accuracy    <       0.00000062 Ry

     iteration # 13     ecut=    40.00 Ry     beta= 0.70
     Davidson diagonalization with overlap
     ethr =  7.70E-09,  avg # of iterations =  3.0

     total cpu time spent up to now is        3.1 secs

     End of self-consistent calculation

          k = 0.0000 0.0000 0.0000 (  1291 PWs)   bands (ev):

    -7.8515   4.5861   4.5861   4.5861

          k =-0.1250 0.1250-0.1250 (  1309 PWs)   bands (ev):

    -7.6994   2.6765   4.3676   4.3676

          k =-0.2500 0.2500-0.2500 (  1314 PWs)   bands (ev):

    -7.2688   0.4850   3.9559   3.9559

          k =-0.3750 0.3750-0.3750 (  1299 PWs)   bands (ev):

    -6.6878  -1.2312   3.6382   3.6382

          k = 0.5000-0.5000 0.5000 (  1308 PWs)   bands (ev):

    -6.3602  -1.9482   3.5242   3.5242

          k = 0.0000 0.2500 0.0000 (  1307 PWs)   bands (ev):

    -7.6480   2.6472   3.9631   3.9631

          k =-0.1250 0.3750-0.1250 (  1315 PWs)   bands (ev):

    -7.3071   0.9875   3.4754   3.4983

          k =-0.2500 0.5000-0.2500 (  1306 PWs)   bands (ev):

    -6.7589  -0.7463   2.8871   3.2254

          k = 0.6250-0.3750 0.6250 (  1303 PWs)   bands (ev):

    -6.2933  -1.7967   2.4610   3.2230

          k = 0.5000-0.2500 0.5000 (  1306 PWs)   bands (ev):

    -6.4098  -1.5560   2.3243   3.4822

          k = 0.3750-0.1250 0.3750 (  1307 PWs)   bands (ev):

    -6.9576  -0.2098   2.5500   3.9215

          k = 0.2500 0.0000 0.2500 (  1311 PWs)   bands (ev):

    -7.4527   1.4852   3.2774   4.3353

          k = 0.0000 0.5000 0.0000 (  1299 PWs)   bands (ev):

    -7.0633   0.5194   2.9740   2.9740

          k =-0.1250 0.6250-0.1250 (  1299 PWs)   bands (ev):

    -6.5934  -0.6375   2.2522   2.6593

          k = 0.7500-0.2500 0.7500 (  1290 PWs)   bands (ev):

    -6.1013  -1.5919   1.4234   2.6468

          k = 0.6250-0.1250 0.6250 (  1297 PWs)   bands (ev):

    -6.0263  -1.7044   1.0053   2.9362

          k = 0.5000 0.0000 0.5000 (  1312 PWs)   bands (ev):

    -6.4566  -0.9918   1.2929   3.4419

          k = 0.0000 0.7500 0.0000 (  1299 PWs)   bands (ev):

    -6.2331  -1.2663   2.2744   2.2744

          k = 0.8750-0.1250 0.8750 (  1301 PWs)   bands (ev):

    -5.8477  -1.8568   1.5687   2.1939

          k = 0.7500 0.0000 0.7500 (  1296 PWs)   bands (ev):

    -5.7517  -1.9161   0.8034   2.4360

          k = 0.0000-1.0000 0.0000 (  1298 PWs)   bands (ev):

    -5.7139  -2.1113   2.0295   2.0295

          k =-0.2500 0.5000 0.0000 (  1307 PWs)   bands (ev):

    -6.8987  -0.0599   2.2631   3.3556

          k = 0.6250-0.3750 0.8750 (  1301 PWs)   bands (ev):

    -6.3584  -1.2307   1.6067   2.9315

          k = 0.5000-0.2500 0.7500 (  1286 PWs)   bands (ev):

    -6.0613  -1.7895   1.4290   2.7354

          k = 0.7500-0.2500 1.0000 (  1314 PWs)   bands (ev):

    -6.1399  -1.3846   1.6306   2.2024

          k = 0.6250-0.1250 0.8750 (  1294 PWs)   bands (ev):

    -5.8085  -1.8238   0.9970   2.0254

          k = 0.5000 0.0000 0.7500 (  1296 PWs)   bands (ev):

    -5.9281  -1.6655   0.8512   2.3613

          k =-0.2500-1.0000 0.0000 (  1298 PWs)   bands (ev):

    -5.6938  -2.0155   1.5246   1.6507

          k =-0.5000-1.0000 0.0000 (  1316 PWs)   bands (ev):

    -5.6736  -1.9056   1.1015   1.3510

     highest occupied level (ev):     4.5861

!    total energy              =     -17.32383915 Ry
     estimated scf accuracy    <          6.8E-09 Ry

     The total energy is the sum of the following terms:
     one-electron contribution =       2.72737178 Ry
     hartree contribution      =       1.55974419 Ry
     xc contribution           =      -4.76690391 Ry
     ewald contribution        =     -16.84405121 Ry

     convergence has been achieved in  13 iterations

     Writing all to output data dir ./SCRATCH/gallium_arsenide.save/

     init_run     :      0.16s CPU      0.18s WALL (       1 calls)
     electrons    :      2.75s CPU      2.87s WALL (       1 calls)

     Called by init_run:
     wfcinit      :      0.12s CPU      0.14s WALL (       1 calls)
     potinit      :      0.00s CPU      0.01s WALL (       1 calls)
     hinit0       :      0.03s CPU      0.02s WALL (       1 calls)

     Called by electrons:
     c_bands      :      2.28s CPU      2.39s WALL (      14 calls)
     sum_band     :      0.44s CPU      0.43s WALL (      14 calls)
     v_of_rho     :      0.00s CPU      0.02s WALL (      14 calls)
     mix_rho      :      0.03s CPU      0.02s WALL (      14 calls)

     Called by c_bands:
     init_us_2    :      0.11s CPU      0.11s WALL (     841 calls)
     init_us_2:cp :      0.11s CPU      0.10s WALL (     841 calls)
     cegterg      :      2.23s CPU      2.26s WALL (     406 calls)

     Called by *egterg:
     cdiaghg      :      0.00s CPU      0.02s WALL (    1301 calls)
     h_psi        :      2.16s CPU      2.16s WALL (    1359 calls)
     g_psi        :      0.02s CPU      0.01s WALL (     924 calls)

     Called by h_psi:
     h_psi:calbec :      0.03s CPU      0.06s WALL (    1359 calls)
     vloc_psi     :      2.09s CPU      2.04s WALL (    1359 calls)
     add_vuspsi   :      0.02s CPU      0.04s WALL (    1359 calls)

     General routines
     calbec       :      0.03s CPU      0.05s WALL (    1359 calls)
     fft          :      0.00s CPU      0.01s WALL (      42 calls)
     ffts         :      0.02s CPU      0.00s WALL (      14 calls)
     fftw         :      2.27s CPU      2.14s WALL (   10680 calls)


     PWSCF        :      2.92s CPU      3.08s WALL


   This run was terminated on:  12:14:28  25May2024            

=------------------------------------------------------------------------------=
   JOB DONE.
=------------------------------------------------------------------------------=
