
     Program PWSCF v.7.2 starts on 11Jun2024 at 11:13:47 

     This program is part of the open-source Quantum ESPRESSO suite
     for quantum simulation of materials; please cite
         "P. Giannozzi et al., J. Phys.:Condens. Matter 21 395502 (2009);
         "P. Giannozzi et al., J. Phys.:Condens. Matter 29 465901 (2017);
         "P. Giannozzi et al., J. Chem. Phys. 152 154105 (2020);
          URL http://www.quantum-espresso.org", 
     in publications or presentations arising from this work. More details at
     http://www.quantum-espresso.org/quote

     Serial version
     8850 MiB available memory on the printing compute node when the environment starts

     Waiting for input...
     Reading input from standard input

     Current dimensions of program PWSCF are:
     Max number of different atomic species (ntypx) = 10
     Max number of k-points (npk) =  40000
     Max angular momentum in pseudopotentials (lmaxx) =  4
     file Ga.pbe-dn-rrkjus_psl.0.2.UPF: wavefunction(s)  4S 3D renormalized


     G-vector sticks info
     --------------------
     sticks:   dense  smooth     PW     G-vecs:    dense   smooth      PW
     Sum        1573     637    199                41151    10417    1837

     Using Slab Decomposition



     bravais-lattice index     =            2
     lattice parameter (alat)  =      10.6829  a.u.
     unit-cell volume          =     304.7951 (a.u.)^3
     number of atoms/cell      =            2
     number of atomic types    =            2
     number of electrons       =        18.00
     number of Kohn-Sham states=            9
     kinetic-energy cutoff     =      40.0000  Ry
     charge density cutoff     =     400.0000  Ry
     scf convergence threshold =      1.0E-08
     mixing beta               =       0.7000
     number of iterations used =            8  plain     mixing
     Exchange-correlation= PBE
                           (   1   4   3   4   0   0   0)

     celldm(1)=  10.682904  celldm(2)=   0.000000  celldm(3)=   0.000000
     celldm(4)=   0.000000  celldm(5)=   0.000000  celldm(6)=   0.000000

     crystal axes: (cart. coord. in units of alat)
               a(1) = (  -0.500000   0.000000   0.500000 )  
               a(2) = (   0.000000   0.500000   0.500000 )  
               a(3) = (  -0.500000   0.500000   0.000000 )  

     reciprocal axes: (cart. coord. in units 2 pi/alat)
               b(1) = ( -1.000000 -1.000000  1.000000 )  
               b(2) = (  1.000000  1.000000  1.000000 )  
               b(3) = ( -1.000000  1.000000 -1.000000 )  


     PseudoPot. # 1 for Ga read from file:
     /home/paolo/project_labqsm/pseudopotentials/Ga.pbe-dn-rrkjus_psl.0.2.UPF
     MD5 check sum: ffdfce4fe0c152725d7fa40f12f9e9e5
     Pseudo is Ultrasoft + core correction, Zval = 13.0
     Generated using "atomic" code by A. Dal Corso  v.5.0.2 svn rev. 9415
     Using radial grid of 1205 points,  6 beta functions with: 
                l(1) =   0
                l(2) =   0
                l(3) =   1
                l(4) =   1
                l(5) =   2
                l(6) =   2
     Q(r) pseudized with 0 coefficients 


     PseudoPot. # 2 for As read from file:
     /home/paolo/project_labqsm/pseudopotentials/As.pbe-n-rrkjus_psl.0.2.UPF
     MD5 check sum: f98050c7212d27f7cb33035312670de9
     Pseudo is Ultrasoft + core correction, Zval =  5.0
     Generated using "atomic" code by A. Dal Corso  v.5.0.2 svn rev. 9415
     Using radial grid of 1209 points,  4 beta functions with: 
                l(1) =   0
                l(2) =   0
                l(3) =   1
                l(4) =   1
     Q(r) pseudized with 0 coefficients 


     atomic species   valence    mass     pseudopotential
        Ga            13.00    69.72300     Ga( 1.00)
        As             5.00    74.92200     As( 1.00)

     24 Sym. Ops. (no inversion) found



   Cartesian axes

     site n.     atom                  positions (alat units)
         1           Ga  tau(   1) = (   0.0000000   0.0000000   0.0000000  )
         2           As  tau(   2) = (   0.2500000   0.2500000   0.2500000  )

     number of k points=    29
                       cart. coord. in units 2pi/alat
        k(    1) = (   0.0000000   0.0000000   0.0000000), wk =   0.0039062
        k(    2) = (  -0.1250000   0.1250000  -0.1250000), wk =   0.0312500
        k(    3) = (  -0.2500000   0.2500000  -0.2500000), wk =   0.0312500
        k(    4) = (  -0.3750000   0.3750000  -0.3750000), wk =   0.0312500
        k(    5) = (   0.5000000  -0.5000000   0.5000000), wk =   0.0156250
        k(    6) = (   0.0000000   0.2500000   0.0000000), wk =   0.0234375
        k(    7) = (  -0.1250000   0.3750000  -0.1250000), wk =   0.0937500
        k(    8) = (  -0.2500000   0.5000000  -0.2500000), wk =   0.0937500
        k(    9) = (   0.6250000  -0.3750000   0.6250000), wk =   0.0937500
        k(   10) = (   0.5000000  -0.2500000   0.5000000), wk =   0.0937500
        k(   11) = (   0.3750000  -0.1250000   0.3750000), wk =   0.0937500
        k(   12) = (   0.2500000   0.0000000   0.2500000), wk =   0.0468750
        k(   13) = (   0.0000000   0.5000000   0.0000000), wk =   0.0234375
        k(   14) = (  -0.1250000   0.6250000  -0.1250000), wk =   0.0937500
        k(   15) = (   0.7500000  -0.2500000   0.7500000), wk =   0.0937500
        k(   16) = (   0.6250000  -0.1250000   0.6250000), wk =   0.0937500
        k(   17) = (   0.5000000   0.0000000   0.5000000), wk =   0.0468750
        k(   18) = (   0.0000000   0.7500000   0.0000000), wk =   0.0234375
        k(   19) = (   0.8750000  -0.1250000   0.8750000), wk =   0.0937500
        k(   20) = (   0.7500000   0.0000000   0.7500000), wk =   0.0468750
        k(   21) = (   0.0000000  -1.0000000   0.0000000), wk =   0.0117188
        k(   22) = (  -0.2500000   0.5000000   0.0000000), wk =   0.0937500
        k(   23) = (   0.6250000  -0.3750000   0.8750000), wk =   0.1875000
        k(   24) = (   0.5000000  -0.2500000   0.7500000), wk =   0.0937500
        k(   25) = (   0.7500000  -0.2500000   1.0000000), wk =   0.0937500
        k(   26) = (   0.6250000  -0.1250000   0.8750000), wk =   0.1875000
        k(   27) = (   0.5000000   0.0000000   0.7500000), wk =   0.0937500
        k(   28) = (  -0.2500000  -1.0000000   0.0000000), wk =   0.0468750
        k(   29) = (  -0.5000000  -1.0000000   0.0000000), wk =   0.0234375

     Dense  grid:    41151 G-vectors     FFT dimensions: (  50,  50,  50)

     Smooth grid:    10417 G-vectors     FFT dimensions: (  32,  32,  32)

     Estimated max dynamical RAM per process >     153.23 MB

     Initial potential from superposition of free atoms

     starting charge      17.9968, renormalised to      18.0000
     Starting wfcs are   13 randomized atomic wfcs

     total cpu time spent up to now is        1.1 secs

     Self-consistent Calculation

     iteration #  1     ecut=    40.00 Ry     beta= 0.70
     Davidson diagonalization with overlap
     ethr =  1.00E-02,  avg # of iterations =  1.3

     Threshold (ethr) on eigenvalues was too large:
     Diagonalizing with lowered threshold

     Davidson diagonalization with overlap
     ethr =  2.93E-04,  avg # of iterations =  2.0

     total cpu time spent up to now is        2.7 secs

     total energy              =    -191.00942180 Ry
     estimated scf accuracy    <       0.05073802 Ry

     iteration #  2     ecut=    40.00 Ry     beta= 0.70
     Davidson diagonalization with overlap
     ethr =  2.82E-04,  avg # of iterations =  2.4

     total cpu time spent up to now is        3.7 secs

     total energy              =    -191.01961757 Ry
     estimated scf accuracy    <       0.00973810 Ry

     iteration #  3     ecut=    40.00 Ry     beta= 0.70
     Davidson diagonalization with overlap
     ethr =  5.41E-05,  avg # of iterations =  2.0

     total cpu time spent up to now is        4.7 secs

     total energy              =    -191.02142124 Ry
     estimated scf accuracy    <       0.00042695 Ry

     iteration #  4     ecut=    40.00 Ry     beta= 0.70
     Davidson diagonalization with overlap
     ethr =  2.37E-06,  avg # of iterations =  2.8

     total cpu time spent up to now is        5.7 secs

     total energy              =    -191.02150495 Ry
     estimated scf accuracy    <       0.00006853 Ry

     iteration #  5     ecut=    40.00 Ry     beta= 0.70
     Davidson diagonalization with overlap
     ethr =  3.81E-07,  avg # of iterations =  2.0

     total cpu time spent up to now is        6.6 secs

     total energy              =    -191.02150125 Ry
     estimated scf accuracy    <       0.00001387 Ry

     iteration #  6     ecut=    40.00 Ry     beta= 0.70
     Davidson diagonalization with overlap
     ethr =  7.71E-08,  avg # of iterations =  3.4

     total cpu time spent up to now is        7.7 secs

     total energy              =    -191.02150550 Ry
     estimated scf accuracy    <       0.00001140 Ry

     iteration #  7     ecut=    40.00 Ry     beta= 0.70
     Davidson diagonalization with overlap
     ethr =  6.33E-08,  avg # of iterations =  2.0

     total cpu time spent up to now is        8.6 secs

     total energy              =    -191.02150754 Ry
     estimated scf accuracy    <       0.00000002 Ry

     iteration #  8     ecut=    40.00 Ry     beta= 0.70
     Davidson diagonalization with overlap
     ethr =  1.21E-10,  avg # of iterations =  6.0

     total cpu time spent up to now is        9.9 secs

     total energy              =    -191.02150760 Ry
     estimated scf accuracy    <       0.00000012 Ry

     iteration #  9     ecut=    40.00 Ry     beta= 0.70
     Davidson diagonalization with overlap
     ethr =  1.21E-10,  avg # of iterations =  3.1

     total cpu time spent up to now is       10.9 secs

     End of self-consistent calculation

          k = 0.0000 0.0000 0.0000 (  1291 PWs)   bands (ev):

    -8.0194  -8.0194  -8.0194  -7.9404  -7.9404  -5.9555   6.7786   6.7786
     6.7786

          k =-0.1250 0.1250-0.1250 (  1309 PWs)   bands (ev):

    -8.0329  -8.0160  -8.0160  -7.9406  -7.9406  -5.7732   4.8140   6.5411
     6.5411

          k =-0.2500 0.2500-0.2500 (  1314 PWs)   bands (ev):

    -8.0621  -8.0083  -8.0083  -7.9400  -7.9400  -5.2642   2.6338   6.0978
     6.0978

          k =-0.3750 0.3750-0.3750 (  1299 PWs)   bands (ev):

    -8.0879  -8.0021  -8.0021  -7.9374  -7.9374  -4.5822   0.8835   5.7567
     5.7567

          k = 0.5000-0.5000 0.5000 (  1308 PWs)   bands (ev):

    -8.0981  -8.0002  -8.0002  -7.9359  -7.9359  -4.1933   0.1296   5.6342
     5.6342

          k = 0.0000 0.2500 0.0000 (  1307 PWs)   bands (ev):

    -8.0405  -8.0126  -8.0126  -7.9435  -7.9383  -5.7126   4.7875   6.1177
     6.1177

          k =-0.1250 0.3750-0.1250 (  1315 PWs)   bands (ev):

    -8.0638  -8.0061  -8.0045  -7.9459  -7.9365  -5.3109   3.1432   5.6061
     5.6273

          k =-0.2500 0.5000-0.2500 (  1306 PWs)   bands (ev):

    -8.0874  -8.0006  -7.9976  -7.9447  -7.9347  -4.6694   1.3846   5.0060
     5.3352

          k = 0.6250-0.3750 0.6250 (  1303 PWs)   bands (ev):

    -8.1003  -7.9981  -7.9952  -7.9405  -7.9351  -4.1195   0.2855   4.5748
     5.3260

          k = 0.5000-0.2500 0.5000 (  1306 PWs)   bands (ev):

    -8.0966  -7.9983  -7.9973  -7.9388  -7.9376  -4.2576   0.5403   4.4370
     5.5934

          k = 0.3750-0.1250 0.3750 (  1307 PWs)   bands (ev):

    -8.0777  -8.0036  -8.0016  -7.9426  -7.9376  -4.9010   1.9332   4.6668
     6.0550

          k = 0.2500 0.0000 0.2500 (  1311 PWs)   bands (ev):

    -8.0518  -8.0119  -8.0085  -7.9427  -7.9388  -5.4811   3.6373   5.4098
     6.4978

          k = 0.0000 0.5000 0.0000 (  1299 PWs)   bands (ev):

    -8.0826  -7.9953  -7.9953  -7.9520  -7.9332  -5.0293   2.6855   5.0826
     5.0826

          k =-0.1250 0.6250-0.1250 (  1299 PWs)   bands (ev):

    -8.1011  -7.9889  -7.9870  -7.9543  -7.9313  -4.4839   1.5065   4.3555
     4.7516

          k = 0.7500-0.2500 0.7500 (  1290 PWs)   bands (ev):

    -8.1098  -7.9891  -7.9838  -7.9509  -7.9322  -3.9045   0.4975   3.5346
     4.7337

          k = 0.6250-0.1250 0.6250 (  1297 PWs)   bands (ev):

    -8.1072  -7.9922  -7.9863  -7.9447  -7.9372  -3.8115   0.3690   3.1194
     5.0306

          k = 0.5000 0.0000 0.5000 (  1312 PWs)   bands (ev):

    -8.0952  -7.9963  -7.9942  -7.9419  -7.9397  -4.3178   1.1268   3.4052
     5.5541

          k = 0.0000 0.7500 0.0000 (  1299 PWs)   bands (ev):

    -8.1172  -7.9774  -7.9774  -7.9617  -7.9283  -4.0693   0.8607   4.3512
     4.3512

          k = 0.8750-0.1250 0.8750 (  1301 PWs)   bands (ev):

    -8.1237  -7.9766  -7.9736  -7.9610  -7.9283  -3.6129   0.2227   3.6566
     4.2653

          k = 0.7500 0.0000 0.7500 (  1296 PWs)   bands (ev):

    -8.1183  -7.9836  -7.9768  -7.9540  -7.9326  -3.4906   0.1375   2.9091
     4.5145

          k = 0.0000-1.0000 0.0000 (  1298 PWs)   bands (ev):

    -8.1301  -7.9699  -7.9699  -7.9658  -7.9261  -3.4551  -0.0477   4.0946
     4.0946

          k =-0.2500 0.5000 0.0000 (  1307 PWs)   bands (ev):

    -8.0843  -7.9989  -7.9961  -7.9483  -7.9347  -4.8352   2.0914   4.3735
     5.4743

          k = 0.6250-0.3750 0.8750 (  1301 PWs)   bands (ev):

    -8.1004  -7.9953  -7.9892  -7.9468  -7.9348  -4.2040   0.8791   3.7182
     5.0370

          k = 0.5000-0.2500 0.7500 (  1286 PWs)   bands (ev):

    -8.1062  -7.9945  -7.9866  -7.9441  -7.9359  -3.8512   0.2821   3.5441
     4.8346

          k = 0.7500-0.2500 1.0000 (  1314 PWs)   bands (ev):

    -8.1132  -7.9853  -7.9796  -7.9560  -7.9309  -3.9551   0.7236   3.7279
     4.2944

          k = 0.6250-0.1250 0.8750 (  1294 PWs)   bands (ev):

    -8.1154  -7.9877  -7.9769  -7.9520  -7.9337  -3.5583   0.2362   3.1065
     4.1165

          k = 0.5000 0.0000 0.7500 (  1296 PWs)   bands (ev):

    -8.1103  -7.9917  -7.9805  -7.9478  -7.9365  -3.6986   0.4053   2.9631
     4.4591

          k =-0.2500-1.0000 0.0000 (  1298 PWs)   bands (ev):

    -8.1239  -7.9788  -7.9729  -7.9586  -7.9298  -3.4257   0.0385   3.6297
     3.7215

          k =-0.5000-1.0000 0.0000 (  1316 PWs)   bands (ev):

    -8.1169  -7.9887  -7.9743  -7.9514  -7.9355  -3.3958   0.1360   3.2373
     3.4220

     highest occupied level (ev):     6.7786

!    total energy              =    -191.02150762 Ry
     estimated scf accuracy    <          3.3E-09 Ry

     The total energy is the sum of the following terms:
     one-electron contribution =    -111.77532499 Ry
     hartree contribution      =      71.69207902 Ry
     xc contribution           =     -57.91909059 Ry
     ewald contribution        =     -93.01917106 Ry

     convergence has been achieved in   9 iterations

     Writing all to output data dir ./SCRATCH/gallium_arsenide.save/

     init_run     :      0.83s CPU      1.01s WALL (       1 calls)
     electrons    :      7.89s CPU      9.84s WALL (       1 calls)

     Called by init_run:
     wfcinit      :      0.25s CPU      0.27s WALL (       1 calls)
     potinit      :      0.08s CPU      0.08s WALL (       1 calls)
     hinit0       :      0.41s CPU      0.43s WALL (       1 calls)

     Called by electrons:
     c_bands      :      5.16s CPU      5.28s WALL (      10 calls)
     sum_band     :      1.61s CPU      2.60s WALL (      10 calls)
     v_of_rho     :      0.45s CPU      0.41s WALL (      10 calls)
     newd         :      0.80s CPU      1.75s WALL (      10 calls)
     mix_rho      :      0.02s CPU      0.03s WALL (      10 calls)

     Called by c_bands:
     init_us_2    :      0.22s CPU      0.16s WALL (     609 calls)
     init_us_2:cp :      0.22s CPU      0.16s WALL (     609 calls)
     cegterg      :      4.97s CPU      4.99s WALL (     290 calls)

     Called by *egterg:
     cdiaghg      :      0.06s CPU      0.06s WALL (    1049 calls)
     h_psi        :      4.30s CPU      4.27s WALL (    1107 calls)
     s_psi        :      0.20s CPU      0.21s WALL (    1107 calls)
     g_psi        :      0.00s CPU      0.02s WALL (     788 calls)

     Called by h_psi:
     h_psi:calbec :      0.31s CPU      0.28s WALL (    1107 calls)
     vloc_psi     :      3.83s CPU      3.77s WALL (    1107 calls)
     add_vuspsi   :      0.14s CPU      0.20s WALL (    1107 calls)

     General routines
     calbec       :      0.34s CPU      0.36s WALL (    1397 calls)
     fft          :      0.20s CPU      0.21s WALL (     129 calls)
     ffts         :      0.02s CPU      0.01s WALL (      20 calls)
     fftw         :      3.84s CPU      3.70s WALL (   18240 calls)
     interpolate  :      0.02s CPU      0.02s WALL (      10 calls)


     PWSCF        :      8.81s CPU     10.96s WALL


   This run was terminated on:  11:13:58  11Jun2024            

=------------------------------------------------------------------------------=
   JOB DONE.
=------------------------------------------------------------------------------=
