
     Program PWSCF v.7.2 starts on 25May2024 at 12:15: 8 

     This program is part of the open-source Quantum ESPRESSO suite
     for quantum simulation of materials; please cite
         "P. Giannozzi et al., J. Phys.:Condens. Matter 21 395502 (2009);
         "P. Giannozzi et al., J. Phys.:Condens. Matter 29 465901 (2017);
         "P. Giannozzi et al., J. Chem. Phys. 152 154105 (2020);
          URL http://www.quantum-espresso.org", 
     in publications or presentations arising from this work. More details at
     http://www.quantum-espresso.org/quote

     Serial version
     8181 MiB available memory on the printing compute node when the environment starts

     Waiting for input...
     Reading input from standard input

     Current dimensions of program PWSCF are:
     Max number of different atomic species (ntypx) = 10
     Max number of k-points (npk) =  40000
     Max angular momentum in pseudopotentials (lmaxx) =  4


     G-vector sticks info
     --------------------
     sticks:   dense  smooth     PW     G-vecs:    dense   smooth      PW
     Sum        1573    1573    451                41151    41151    6375

     Using Slab Decomposition



     bravais-lattice index     =            2
     lattice parameter (alat)  =      10.6829  a.u.
     unit-cell volume          =     304.7951 (a.u.)^3
     number of atoms/cell      =            2
     number of atomic types    =            2
     number of electrons       =         8.00
     number of Kohn-Sham states=            4
     kinetic-energy cutoff     =     100.0000  Ry
     charge density cutoff     =     400.0000  Ry
     scf convergence threshold =      1.0E-08
     mixing beta               =       0.7000
     number of iterations used =            8  plain     mixing
     Exchange-correlation= SLA  PZ   NOGX NOGC
                           (   1   1   0   0   0   0   0)

     celldm(1)=  10.682904  celldm(2)=   0.000000  celldm(3)=   0.000000
     celldm(4)=   0.000000  celldm(5)=   0.000000  celldm(6)=   0.000000

     crystal axes: (cart. coord. in units of alat)
               a(1) = (  -0.500000   0.000000   0.500000 )  
               a(2) = (   0.000000   0.500000   0.500000 )  
               a(3) = (  -0.500000   0.500000   0.000000 )  

     reciprocal axes: (cart. coord. in units 2 pi/alat)
               b(1) = ( -1.000000 -1.000000  1.000000 )  
               b(2) = (  1.000000  1.000000  1.000000 )  
               b(3) = ( -1.000000  1.000000 -1.000000 )  


     PseudoPot. # 1 for Ga read from file:
     /home/paolo/project_labqsm/pseudopotentials/Ga.pz-bhs.UPF
     MD5 check sum: 09b06f4702dea281feaf053846378b49
     Pseudo is Norm-conserving, Zval =  3.0
     Generated by new atomic code, or converted to UPF format
     Using radial grid of  523 points,  2 beta functions with: 
                l(1) =   0
                l(2) =   1

     PseudoPot. # 2 for As read from file:
     /home/paolo/project_labqsm/pseudopotentials/As.pz-bhs.UPF
     MD5 check sum: d67708448008dff3ec15a9356ed645c7
     Pseudo is Norm-conserving, Zval =  5.0
     Generated by new atomic code, or converted to UPF format
     Using radial grid of  525 points,  2 beta functions with: 
                l(1) =   0
                l(2) =   1

     atomic species   valence    mass     pseudopotential
        Ga             3.00    69.72300     Ga( 1.00)
        As             5.00    74.92200     As( 1.00)

     24 Sym. Ops. (no inversion) found



   Cartesian axes

     site n.     atom                  positions (alat units)
         1           Ga  tau(   1) = (   0.0000000   0.0000000   0.0000000  )
         2           As  tau(   2) = (   0.2500000   0.2500000   0.2500000  )

     number of k points=    29
                       cart. coord. in units 2pi/alat
        k(    1) = (   0.0000000   0.0000000   0.0000000), wk =   0.0039062
        k(    2) = (  -0.1250000   0.1250000  -0.1250000), wk =   0.0312500
        k(    3) = (  -0.2500000   0.2500000  -0.2500000), wk =   0.0312500
        k(    4) = (  -0.3750000   0.3750000  -0.3750000), wk =   0.0312500
        k(    5) = (   0.5000000  -0.5000000   0.5000000), wk =   0.0156250
        k(    6) = (   0.0000000   0.2500000   0.0000000), wk =   0.0234375
        k(    7) = (  -0.1250000   0.3750000  -0.1250000), wk =   0.0937500
        k(    8) = (  -0.2500000   0.5000000  -0.2500000), wk =   0.0937500
        k(    9) = (   0.6250000  -0.3750000   0.6250000), wk =   0.0937500
        k(   10) = (   0.5000000  -0.2500000   0.5000000), wk =   0.0937500
        k(   11) = (   0.3750000  -0.1250000   0.3750000), wk =   0.0937500
        k(   12) = (   0.2500000   0.0000000   0.2500000), wk =   0.0468750
        k(   13) = (   0.0000000   0.5000000   0.0000000), wk =   0.0234375
        k(   14) = (  -0.1250000   0.6250000  -0.1250000), wk =   0.0937500
        k(   15) = (   0.7500000  -0.2500000   0.7500000), wk =   0.0937500
        k(   16) = (   0.6250000  -0.1250000   0.6250000), wk =   0.0937500
        k(   17) = (   0.5000000   0.0000000   0.5000000), wk =   0.0468750
        k(   18) = (   0.0000000   0.7500000   0.0000000), wk =   0.0234375
        k(   19) = (   0.8750000  -0.1250000   0.8750000), wk =   0.0937500
        k(   20) = (   0.7500000   0.0000000   0.7500000), wk =   0.0468750
        k(   21) = (   0.0000000  -1.0000000   0.0000000), wk =   0.0117188
        k(   22) = (  -0.2500000   0.5000000   0.0000000), wk =   0.0937500
        k(   23) = (   0.6250000  -0.3750000   0.8750000), wk =   0.1875000
        k(   24) = (   0.5000000  -0.2500000   0.7500000), wk =   0.0937500
        k(   25) = (   0.7500000  -0.2500000   1.0000000), wk =   0.0937500
        k(   26) = (   0.6250000  -0.1250000   0.8750000), wk =   0.1875000
        k(   27) = (   0.5000000   0.0000000   0.7500000), wk =   0.0937500
        k(   28) = (  -0.2500000  -1.0000000   0.0000000), wk =   0.0468750
        k(   29) = (  -0.5000000  -1.0000000   0.0000000), wk =   0.0234375

     Dense  grid:    41151 G-vectors     FFT dimensions: (  50,  50,  50)

     Estimated max dynamical RAM per process >      38.54 MB

     Initial potential from superposition of free atoms

     starting charge       7.9979, renormalised to       8.0000
     Starting wfcs are    8 randomized atomic wfcs

     total cpu time spent up to now is        0.8 secs

     Self-consistent Calculation

     iteration #  1     ecut=   100.00 Ry     beta= 0.70
     Davidson diagonalization with overlap
     ethr =  1.00E-02,  avg # of iterations =  1.4

     Threshold (ethr) on eigenvalues was too large:
     Diagonalizing with lowered threshold

     Davidson diagonalization with overlap
     ethr =  4.70E-04,  avg # of iterations =  2.9

     total cpu time spent up to now is        2.7 secs

     total energy              =     -17.31673927 Ry
     estimated scf accuracy    <       0.04155639 Ry

     iteration #  2     ecut=   100.00 Ry     beta= 0.70
     Davidson diagonalization with overlap
     ethr =  5.19E-04,  avg # of iterations =  2.0

     total cpu time spent up to now is        3.7 secs

     total energy              =     -17.32349167 Ry
     estimated scf accuracy    <       0.00276200 Ry

     iteration #  3     ecut=   100.00 Ry     beta= 0.70
     Davidson diagonalization with overlap
     ethr =  3.45E-05,  avg # of iterations =  3.2

     total cpu time spent up to now is        4.8 secs

     total energy              =     -17.32422091 Ry
     estimated scf accuracy    <       0.00047367 Ry

     iteration #  4     ecut=   100.00 Ry     beta= 0.70
     Davidson diagonalization with overlap
     ethr =  5.92E-06,  avg # of iterations =  3.3

     total cpu time spent up to now is        6.0 secs

     total energy              =     -17.32452405 Ry
     estimated scf accuracy    <       0.00019677 Ry

     iteration #  5     ecut=   100.00 Ry     beta= 0.70
     Davidson diagonalization with overlap
     ethr =  2.46E-06,  avg # of iterations =  1.7

     total cpu time spent up to now is        6.9 secs

     total energy              =     -17.32456396 Ry
     estimated scf accuracy    <       0.00020434 Ry

     iteration #  6     ecut=   100.00 Ry     beta= 0.70
     Davidson diagonalization with overlap
     ethr =  2.46E-06,  avg # of iterations =  1.1

     total cpu time spent up to now is        7.6 secs

     total energy              =     -17.32450382 Ry
     estimated scf accuracy    <       0.00027068 Ry

     iteration #  7     ecut=   100.00 Ry     beta= 0.70
     Davidson diagonalization with overlap
     ethr =  2.46E-06,  avg # of iterations =  1.1

     total cpu time spent up to now is        8.4 secs

     total energy              =     -17.32497438 Ry
     estimated scf accuracy    <       0.00014722 Ry

     iteration #  8     ecut=   100.00 Ry     beta= 0.70
     Davidson diagonalization with overlap
     ethr =  1.84E-06,  avg # of iterations =  7.4

     total cpu time spent up to now is       10.5 secs

     total energy              =     -17.32494187 Ry
     estimated scf accuracy    <       0.00465700 Ry

     iteration #  9     ecut=   100.00 Ry     beta= 0.70
     Davidson diagonalization with overlap
     ethr =  1.84E-06,  avg # of iterations =  4.6

     total cpu time spent up to now is       11.9 secs

     total energy              =     -17.32422623 Ry
     estimated scf accuracy    <       0.00180803 Ry

     iteration # 10     ecut=   100.00 Ry     beta= 0.70
     Davidson diagonalization with overlap
     ethr =  1.84E-06,  avg # of iterations =  5.6

     total cpu time spent up to now is       13.5 secs

     total energy              =     -17.32452178 Ry
     estimated scf accuracy    <       0.00005853 Ry

     iteration # 11     ecut=   100.00 Ry     beta= 0.70
     Davidson diagonalization with overlap
     ethr =  7.32E-07,  avg # of iterations =  1.3

     total cpu time spent up to now is       14.3 secs

     total energy              =     -17.32453808 Ry
     estimated scf accuracy    <       0.00015148 Ry

     iteration # 12     ecut=   100.00 Ry     beta= 0.70
     Davidson diagonalization with overlap
     ethr =  7.32E-07,  avg # of iterations =  1.0

     total cpu time spent up to now is       15.0 secs

     total energy              =     -17.32442261 Ry
     estimated scf accuracy    <       0.00018335 Ry

     iteration # 13     ecut=   100.00 Ry     beta= 0.70
     Davidson diagonalization with overlap
     ethr =  7.32E-07,  avg # of iterations =  3.2

     total cpu time spent up to now is       16.3 secs

     total energy              =     -17.32446372 Ry
     estimated scf accuracy    <       0.00000476 Ry

     iteration # 14     ecut=   100.00 Ry     beta= 0.70
     Davidson diagonalization with overlap
     ethr =  5.94E-08,  avg # of iterations =  3.7

     total cpu time spent up to now is       17.5 secs

     total energy              =     -17.32446599 Ry
     estimated scf accuracy    <       0.00000074 Ry

     iteration # 15     ecut=   100.00 Ry     beta= 0.70
     Davidson diagonalization with overlap
     ethr =  9.20E-09,  avg # of iterations =  1.9

     total cpu time spent up to now is       18.4 secs

     total energy              =     -17.32446614 Ry
     estimated scf accuracy    <       0.00000081 Ry

     iteration # 16     ecut=   100.00 Ry     beta= 0.70
     Davidson diagonalization with overlap
     ethr =  9.20E-09,  avg # of iterations =  1.0

     total cpu time spent up to now is       19.2 secs

     total energy              =     -17.32446626 Ry
     estimated scf accuracy    <       0.00000100 Ry

     iteration # 17     ecut=   100.00 Ry     beta= 0.70
     Davidson diagonalization with overlap
     ethr =  9.20E-09,  avg # of iterations =  1.0

     total cpu time spent up to now is       19.9 secs

     total energy              =     -17.32446643 Ry
     estimated scf accuracy    <       0.00000128 Ry

     iteration # 18     ecut=   100.00 Ry     beta= 0.70
     Davidson diagonalization with overlap
     ethr =  9.20E-09,  avg # of iterations =  1.0

     total cpu time spent up to now is       20.7 secs

     total energy              =     -17.32446554 Ry
     estimated scf accuracy    <       0.00000169 Ry

     iteration # 19     ecut=   100.00 Ry     beta= 0.70
     Davidson diagonalization with overlap
     ethr =  9.20E-09,  avg # of iterations =  2.0

     total cpu time spent up to now is       21.7 secs

     total energy              =     -17.32446569 Ry
     estimated scf accuracy    <       0.00000008 Ry

     iteration # 20     ecut=   100.00 Ry     beta= 0.70
     Davidson diagonalization with overlap
     ethr =  9.80E-10,  avg # of iterations =  5.1

     total cpu time spent up to now is       23.2 secs

     total energy              =     -17.32446575 Ry
     estimated scf accuracy    <       0.00000002 Ry

     iteration # 21     ecut=   100.00 Ry     beta= 0.70
     Davidson diagonalization with overlap
     ethr =  2.70E-10,  avg # of iterations =  2.2

     total cpu time spent up to now is       24.3 secs

     End of self-consistent calculation

          k = 0.0000 0.0000 0.0000 (  5065 PWs)   bands (ev):

    -7.8530   4.5861   4.5861   4.5861

          k =-0.1250 0.1250-0.1250 (  5089 PWs)   bands (ev):

    -7.7008   2.6754   4.3677   4.3677

          k =-0.2500 0.2500-0.2500 (  5144 PWs)   bands (ev):

    -7.2703   0.4841   3.9560   3.9560

          k =-0.3750 0.3750-0.3750 (  5147 PWs)   bands (ev):

    -6.6897  -1.2318   3.6383   3.6383

          k = 0.5000-0.5000 0.5000 (  5168 PWs)   bands (ev):

    -6.3623  -1.9485   3.5243   3.5243

          k = 0.0000 0.2500 0.0000 (  5109 PWs)   bands (ev):

    -7.6495   2.6459   3.9632   3.9632

          k =-0.1250 0.3750-0.1250 (  5143 PWs)   bands (ev):

    -7.3086   0.9865   3.4753   3.4984

          k =-0.2500 0.5000-0.2500 (  5138 PWs)   bands (ev):

    -6.7608  -0.7470   2.8869   3.2255

          k = 0.6250-0.3750 0.6250 (  5148 PWs)   bands (ev):

    -6.2955  -1.7970   2.4608   3.2231

          k = 0.5000-0.2500 0.5000 (  5158 PWs)   bands (ev):

    -6.4118  -1.5565   2.3241   3.4823

          k = 0.3750-0.1250 0.3750 (  5144 PWs)   bands (ev):

    -6.9593  -0.2106   2.5499   3.9216

          k = 0.2500 0.0000 0.2500 (  5110 PWs)   bands (ev):

    -7.4541   1.4841   3.2774   4.3354

          k = 0.0000 0.5000 0.0000 (  5105 PWs)   bands (ev):

    -7.0650   0.5182   2.9740   2.9740

          k =-0.1250 0.6250-0.1250 (  5150 PWs)   bands (ev):

    -6.5953  -0.6384   2.2522   2.6593

          k = 0.7500-0.2500 0.7500 (  5159 PWs)   bands (ev):

    -6.1038  -1.5923   1.4233   2.6469

          k = 0.6250-0.1250 0.6250 (  5155 PWs)   bands (ev):

    -6.0287  -1.7047   1.0051   2.9362

          k = 0.5000 0.0000 0.5000 (  5166 PWs)   bands (ev):

    -6.4585  -0.9925   1.2928   3.4420

          k = 0.0000 0.7500 0.0000 (  5157 PWs)   bands (ev):

    -6.2353  -1.2669   2.2744   2.2744

          k = 0.8750-0.1250 0.8750 (  5156 PWs)   bands (ev):

    -5.8502  -1.8570   1.5686   2.1939

          k = 0.7500 0.0000 0.7500 (  5134 PWs)   bands (ev):

    -5.7543  -1.9162   0.8033   2.4360

          k = 0.0000-1.0000 0.0000 (  5138 PWs)   bands (ev):

    -5.7166  -2.1115   2.0295   2.0295

          k =-0.2500 0.5000 0.0000 (  5136 PWs)   bands (ev):

    -6.9004  -0.0609   2.2630   3.3556

          k = 0.6250-0.3750 0.8750 (  5154 PWs)   bands (ev):

    -6.3604  -1.2313   1.6066   2.9315

          k = 0.5000-0.2500 0.7500 (  5168 PWs)   bands (ev):

    -6.0639  -1.7898   1.4288   2.7354

          k = 0.7500-0.2500 1.0000 (  5142 PWs)   bands (ev):

    -6.1419  -1.3852   1.6306   2.2024

          k = 0.6250-0.1250 0.8750 (  5153 PWs)   bands (ev):

    -5.8112  -1.8240   0.9969   2.0254

          k = 0.5000 0.0000 0.7500 (  5157 PWs)   bands (ev):

    -5.9306  -1.6658   0.8511   2.3613

          k =-0.2500-1.0000 0.0000 (  5166 PWs)   bands (ev):

    -5.6965  -2.0157   1.5246   1.6507

          k =-0.5000-1.0000 0.0000 (  5124 PWs)   bands (ev):

    -5.6760  -1.9057   1.1015   1.3510

     highest occupied level (ev):     4.5861

!    total energy              =     -17.32446576 Ry
     estimated scf accuracy    <          9.9E-10 Ry

     The total energy is the sum of the following terms:
     one-electron contribution =       2.72667074 Ry
     hartree contribution      =       1.55982957 Ry
     xc contribution           =      -4.76691489 Ry
     ewald contribution        =     -16.84405117 Ry

     convergence has been achieved in  21 iterations

     Writing all to output data dir ./SCRATCH/gallium_arsenide.save/

     init_run     :      0.73s CPU      0.76s WALL (       1 calls)
     electrons    :     23.23s CPU     23.53s WALL (       1 calls)

     Called by init_run:
     wfcinit      :      0.64s CPU      0.65s WALL (       1 calls)
     potinit      :      0.02s CPU      0.02s WALL (       1 calls)
     hinit0       :      0.05s CPU      0.05s WALL (       1 calls)

     Called by electrons:
     c_bands      :     19.69s CPU     19.96s WALL (      22 calls)
     sum_band     :      3.28s CPU      3.28s WALL (      22 calls)
     v_of_rho     :      0.09s CPU      0.13s WALL (      22 calls)
     mix_rho      :      0.12s CPU      0.14s WALL (      22 calls)

     Called by c_bands:
     init_us_2    :      0.55s CPU      0.63s WALL (    1305 calls)
     init_us_2:cp :      0.53s CPU      0.63s WALL (    1305 calls)
     cegterg      :     19.25s CPU     19.39s WALL (     638 calls)

     Called by *egterg:
     cdiaghg      :      0.06s CPU      0.04s WALL (    2285 calls)
     h_psi        :     18.98s CPU     18.64s WALL (    2343 calls)
     g_psi        :      0.03s CPU      0.08s WALL (    1676 calls)

     Called by h_psi:
     h_psi:calbec :      0.30s CPU      0.36s WALL (    2343 calls)
     vloc_psi     :     18.39s CPU     17.94s WALL (    2343 calls)
     add_vuspsi   :      0.19s CPU      0.27s WALL (    2343 calls)

     General routines
     calbec       :      0.30s CPU      0.35s WALL (    2343 calls)
     fft          :      0.05s CPU      0.11s WALL (      66 calls)
     ffts         :      0.08s CPU      0.04s WALL (      22 calls)
     fftw         :     19.31s CPU     19.15s WALL (   18476 calls)


     PWSCF        :     23.97s CPU     24.32s WALL


   This run was terminated on:  12:15:32  25May2024            

=------------------------------------------------------------------------------=
   JOB DONE.
=------------------------------------------------------------------------------=
