
     Program PWSCF v.7.2 starts on 11Jun2024 at 11:16: 7 

     This program is part of the open-source Quantum ESPRESSO suite
     for quantum simulation of materials; please cite
         "P. Giannozzi et al., J. Phys.:Condens. Matter 21 395502 (2009);
         "P. Giannozzi et al., J. Phys.:Condens. Matter 29 465901 (2017);
         "P. Giannozzi et al., J. Chem. Phys. 152 154105 (2020);
          URL http://www.quantum-espresso.org", 
     in publications or presentations arising from this work. More details at
     http://www.quantum-espresso.org/quote

     Serial version
     8904 MiB available memory on the printing compute node when the environment starts

     Waiting for input...
     Reading input from standard input

     Current dimensions of program PWSCF are:
     Max number of different atomic species (ntypx) = 10
     Max number of k-points (npk) =  40000
     Max angular momentum in pseudopotentials (lmaxx) =  4
     file Ga.pbe-dn-rrkjus_psl.0.2.UPF: wavefunction(s)  4S 3D renormalized


     G-vector sticks info
     --------------------
     sticks:   dense  smooth     PW     G-vecs:    dense   smooth      PW
     Sum        2053     823    253                61143    15473    2637

     Using Slab Decomposition



     bravais-lattice index     =            2
     lattice parameter (alat)  =      10.8966  a.u.
     unit-cell volume          =     323.4510 (a.u.)^3
     number of atoms/cell      =            2
     number of atomic types    =            2
     number of electrons       =        18.00
     number of Kohn-Sham states=            9
     kinetic-energy cutoff     =      50.0000  Ry
     charge density cutoff     =     500.0000  Ry
     scf convergence threshold =      1.0E-08
     mixing beta               =       0.7000
     number of iterations used =            8  plain     mixing
     Exchange-correlation= PBE
                           (   1   4   3   4   0   0   0)

     celldm(1)=  10.896563  celldm(2)=   0.000000  celldm(3)=   0.000000
     celldm(4)=   0.000000  celldm(5)=   0.000000  celldm(6)=   0.000000

     crystal axes: (cart. coord. in units of alat)
               a(1) = (  -0.500000   0.000000   0.500000 )  
               a(2) = (   0.000000   0.500000   0.500000 )  
               a(3) = (  -0.500000   0.500000   0.000000 )  

     reciprocal axes: (cart. coord. in units 2 pi/alat)
               b(1) = ( -1.000000 -1.000000  1.000000 )  
               b(2) = (  1.000000  1.000000  1.000000 )  
               b(3) = ( -1.000000  1.000000 -1.000000 )  


     PseudoPot. # 1 for Ga read from file:
     /home/paolo/project_labqsm/pseudopotentials/Ga.pbe-dn-rrkjus_psl.0.2.UPF
     MD5 check sum: ffdfce4fe0c152725d7fa40f12f9e9e5
     Pseudo is Ultrasoft + core correction, Zval = 13.0
     Generated using "atomic" code by A. Dal Corso  v.5.0.2 svn rev. 9415
     Using radial grid of 1205 points,  6 beta functions with: 
                l(1) =   0
                l(2) =   0
                l(3) =   1
                l(4) =   1
                l(5) =   2
                l(6) =   2
     Q(r) pseudized with 0 coefficients 


     PseudoPot. # 2 for As read from file:
     /home/paolo/project_labqsm/pseudopotentials/As.pbe-n-rrkjus_psl.0.2.UPF
     MD5 check sum: f98050c7212d27f7cb33035312670de9
     Pseudo is Ultrasoft + core correction, Zval =  5.0
     Generated using "atomic" code by A. Dal Corso  v.5.0.2 svn rev. 9415
     Using radial grid of 1209 points,  4 beta functions with: 
                l(1) =   0
                l(2) =   0
                l(3) =   1
                l(4) =   1
     Q(r) pseudized with 0 coefficients 


     atomic species   valence    mass     pseudopotential
        Ga            13.00    69.72300     Ga( 1.00)
        As             5.00    74.92200     As( 1.00)

     24 Sym. Ops. (no inversion) found



   Cartesian axes

     site n.     atom                  positions (alat units)
         1           Ga  tau(   1) = (   0.0000000   0.0000000   0.0000000  )
         2           As  tau(   2) = (   0.2500000   0.2500000   0.2500000  )

     number of k points=    29
                       cart. coord. in units 2pi/alat
        k(    1) = (   0.0000000   0.0000000   0.0000000), wk =   0.0039062
        k(    2) = (  -0.1250000   0.1250000  -0.1250000), wk =   0.0312500
        k(    3) = (  -0.2500000   0.2500000  -0.2500000), wk =   0.0312500
        k(    4) = (  -0.3750000   0.3750000  -0.3750000), wk =   0.0312500
        k(    5) = (   0.5000000  -0.5000000   0.5000000), wk =   0.0156250
        k(    6) = (   0.0000000   0.2500000   0.0000000), wk =   0.0234375
        k(    7) = (  -0.1250000   0.3750000  -0.1250000), wk =   0.0937500
        k(    8) = (  -0.2500000   0.5000000  -0.2500000), wk =   0.0937500
        k(    9) = (   0.6250000  -0.3750000   0.6250000), wk =   0.0937500
        k(   10) = (   0.5000000  -0.2500000   0.5000000), wk =   0.0937500
        k(   11) = (   0.3750000  -0.1250000   0.3750000), wk =   0.0937500
        k(   12) = (   0.2500000   0.0000000   0.2500000), wk =   0.0468750
        k(   13) = (   0.0000000   0.5000000   0.0000000), wk =   0.0234375
        k(   14) = (  -0.1250000   0.6250000  -0.1250000), wk =   0.0937500
        k(   15) = (   0.7500000  -0.2500000   0.7500000), wk =   0.0937500
        k(   16) = (   0.6250000  -0.1250000   0.6250000), wk =   0.0937500
        k(   17) = (   0.5000000   0.0000000   0.5000000), wk =   0.0468750
        k(   18) = (   0.0000000   0.7500000   0.0000000), wk =   0.0234375
        k(   19) = (   0.8750000  -0.1250000   0.8750000), wk =   0.0937500
        k(   20) = (   0.7500000   0.0000000   0.7500000), wk =   0.0468750
        k(   21) = (   0.0000000  -1.0000000   0.0000000), wk =   0.0117188
        k(   22) = (  -0.2500000   0.5000000   0.0000000), wk =   0.0937500
        k(   23) = (   0.6250000  -0.3750000   0.8750000), wk =   0.1875000
        k(   24) = (   0.5000000  -0.2500000   0.7500000), wk =   0.0937500
        k(   25) = (   0.7500000  -0.2500000   1.0000000), wk =   0.0937500
        k(   26) = (   0.6250000  -0.1250000   0.8750000), wk =   0.1875000
        k(   27) = (   0.5000000   0.0000000   0.7500000), wk =   0.0937500
        k(   28) = (  -0.2500000  -1.0000000   0.0000000), wk =   0.0468750
        k(   29) = (  -0.5000000  -1.0000000   0.0000000), wk =   0.0234375

     Dense  grid:    61143 G-vectors     FFT dimensions: (  60,  60,  60)

     Smooth grid:    15473 G-vectors     FFT dimensions: (  36,  36,  36)

     Estimated max dynamical RAM per process >     228.55 MB

     Initial potential from superposition of free atoms

     starting charge      17.9968, renormalised to      18.0000
     Starting wfcs are   13 randomized atomic wfcs

     total cpu time spent up to now is        1.4 secs

     Self-consistent Calculation

     iteration #  1     ecut=    50.00 Ry     beta= 0.70
     Davidson diagonalization with overlap
     ethr =  1.00E-02,  avg # of iterations =  1.4

     Threshold (ethr) on eigenvalues was too large:
     Diagonalizing with lowered threshold

     Davidson diagonalization with overlap
     ethr =  2.82E-04,  avg # of iterations =  2.0

     total cpu time spent up to now is        3.8 secs

     total energy              =    -191.01339734 Ry
     estimated scf accuracy    <       0.04890029 Ry

     iteration #  2     ecut=    50.00 Ry     beta= 0.70
     Davidson diagonalization with overlap
     ethr =  2.72E-04,  avg # of iterations =  2.5

     total cpu time spent up to now is        5.4 secs

     total energy              =    -191.02355897 Ry
     estimated scf accuracy    <       0.01058747 Ry

     iteration #  3     ecut=    50.00 Ry     beta= 0.70
     Davidson diagonalization with overlap
     ethr =  5.88E-05,  avg # of iterations =  2.0

     total cpu time spent up to now is        6.9 secs

     total energy              =    -191.02549452 Ry
     estimated scf accuracy    <       0.00043669 Ry

     iteration #  4     ecut=    50.00 Ry     beta= 0.70
     Davidson diagonalization with overlap
     ethr =  2.43E-06,  avg # of iterations =  3.3

     total cpu time spent up to now is        8.6 secs

     total energy              =    -191.02559891 Ry
     estimated scf accuracy    <       0.00010024 Ry

     iteration #  5     ecut=    50.00 Ry     beta= 0.70
     Davidson diagonalization with overlap
     ethr =  5.57E-07,  avg # of iterations =  1.9

     total cpu time spent up to now is       10.0 secs

     total energy              =    -191.02559012 Ry
     estimated scf accuracy    <       0.00002153 Ry

     iteration #  6     ecut=    50.00 Ry     beta= 0.70
     Davidson diagonalization with overlap
     ethr =  1.20E-07,  avg # of iterations =  3.3

     total cpu time spent up to now is       11.6 secs

     total energy              =    -191.02559862 Ry
     estimated scf accuracy    <       0.00002252 Ry

     iteration #  7     ecut=    50.00 Ry     beta= 0.70
     Davidson diagonalization with overlap
     ethr =  1.20E-07,  avg # of iterations =  2.0

     total cpu time spent up to now is       13.0 secs

     total energy              =    -191.02560047 Ry
     estimated scf accuracy    <       0.00000112 Ry

     iteration #  8     ecut=    50.00 Ry     beta= 0.70
     Davidson diagonalization with overlap
     ethr =  6.25E-09,  avg # of iterations =  4.2

     total cpu time spent up to now is       14.6 secs

     total energy              =    -191.02560105 Ry
     estimated scf accuracy    <       0.00000025 Ry

     iteration #  9     ecut=    50.00 Ry     beta= 0.70
     Davidson diagonalization with overlap
     ethr =  1.37E-09,  avg # of iterations =  1.6

     total cpu time spent up to now is       15.9 secs

     total energy              =    -191.02560102 Ry
     estimated scf accuracy    <       0.00000006 Ry

     iteration # 10     ecut=    50.00 Ry     beta= 0.70
     Davidson diagonalization with overlap
     ethr =  3.52E-10,  avg # of iterations =  3.3

     total cpu time spent up to now is       17.5 secs

     total energy              =    -191.02560105 Ry
     estimated scf accuracy    <       0.00000002 Ry

     iteration # 11     ecut=    50.00 Ry     beta= 0.70
     Davidson diagonalization with overlap
     ethr =  8.42E-11,  avg # of iterations =  2.2

     total cpu time spent up to now is       18.9 secs

     End of self-consistent calculation

          k = 0.0000 0.0000 0.0000 (  1917 PWs)   bands (ev):

    -8.6293  -8.6293  -8.6293  -8.5639  -8.5639  -6.2477   6.0755   6.0755
     6.0755

          k =-0.1250 0.1250-0.1250 (  1934 PWs)   bands (ev):

    -8.6393  -8.6264  -8.6264  -8.5639  -8.5639  -6.0811   4.0704   5.8596
     5.8596

          k =-0.2500 0.2500-0.2500 (  1934 PWs)   bands (ev):

    -8.6617  -8.6202  -8.6202  -8.5633  -8.5633  -5.6167   2.0386   5.4506
     5.4506

          k =-0.3750 0.3750-0.3750 (  1922 PWs)   bands (ev):

    -8.6823  -8.6151  -8.6151  -8.5614  -8.5614  -5.0033   0.4213   5.1326
     5.1326

          k = 0.5000-0.5000 0.5000 (  1916 PWs)   bands (ev):

    -8.6905  -8.6135  -8.6135  -8.5602  -8.5602  -4.6627  -0.2626   5.0179
     5.0179

          k = 0.0000 0.2500 0.0000 (  1937 PWs)   bands (ev):

    -8.6454  -8.6237  -8.6237  -8.5662  -8.5622  -6.0254   3.9990   5.4755
     5.4755

          k =-0.1250 0.3750-0.1250 (  1940 PWs)   bands (ev):

    -8.6634  -8.6184  -8.6171  -8.5679  -8.5606  -5.6581   2.4805   4.9849
     5.0216

          k =-0.2500 0.5000-0.2500 (  1952 PWs)   bands (ev):

    -8.6822  -8.6139  -8.6116  -8.5670  -8.5592  -5.0781   0.8642   4.4133
     4.7475

          k = 0.6250-0.3750 0.6250 (  1937 PWs)   bands (ev):

    -8.6926  -8.6118  -8.6096  -8.5638  -8.5595  -4.5934  -0.1320   4.0074
     4.7360

          k = 0.5000-0.2500 0.5000 (  1930 PWs)   bands (ev):

    -8.6896  -8.6119  -8.6112  -8.5624  -8.5615  -4.7138   0.0971   3.8856
     4.9819

          k = 0.3750-0.1250 0.3750 (  1930 PWs)   bands (ev):

    -8.6743  -8.6165  -8.6147  -8.5653  -8.5615  -5.2867   1.3673   4.1176
     5.4079

          k = 0.2500 0.0000 0.2500 (  1943 PWs)   bands (ev):

    -8.6539  -8.6232  -8.6203  -8.5655  -8.5625  -5.8140   2.9462   4.8254
     5.8154

          k = 0.0000 0.5000 0.0000 (  1964 PWs)   bands (ev):

    -8.6791  -8.6098  -8.6098  -8.5728  -8.5581  -5.3999   2.0155   4.5168
     4.5168

          k =-0.1250 0.6250-0.1250 (  1937 PWs)   bands (ev):

    -8.6940  -8.6045  -8.6031  -8.5747  -8.5564  -4.9064   0.9297   3.8370
     4.2072

          k = 0.7500-0.2500 0.7500 (  1923 PWs)   bands (ev):

    -8.7012  -8.6045  -8.6005  -8.5720  -8.5572  -4.3956   0.0221   3.0660
     4.1887

          k = 0.6250-0.1250 0.6250 (  1931 PWs)   bands (ev):

    -8.6989  -8.6071  -8.6025  -8.5671  -8.5611  -4.3174  -0.0889   2.6818
     4.4632

          k = 0.5000 0.0000 0.5000 (  1923 PWs)   bands (ev):

    -8.6887  -8.6103  -8.6088  -8.5648  -8.5629  -4.7622   0.5950   2.9573
     4.9471

          k = 0.0000 0.7500 0.0000 (  1952 PWs)   bands (ev):

    -8.7077  -8.5954  -8.5954  -8.5802  -8.5540  -4.5336   0.3282   3.8339
     3.8339

          k = 0.8750-0.1250 0.8750 (  1935 PWs)   bands (ev):

    -8.7131  -8.5945  -8.5923  -8.5798  -8.5540  -4.1359  -0.2443   3.1946
     3.7529

          k = 0.7500 0.0000 0.7500 (  1926 PWs)   bands (ev):

    -8.7086  -8.6001  -8.5949  -8.5745  -8.5574  -4.0355  -0.3157   2.5058
     3.9844

          k = 0.0000-1.0000 0.0000 (  1964 PWs)   bands (ev):

    -8.7186  -8.5893  -8.5893  -8.5835  -8.5523  -3.9999  -0.4829   3.5937
     3.5937

          k =-0.2500 0.5000 0.0000 (  1936 PWs)   bands (ev):

    -8.6800  -8.6126  -8.6103  -8.5699  -8.5591  -5.2253   1.4830   3.8600
     4.8718

          k = 0.6250-0.3750 0.8750 (  1931 PWs)   bands (ev):

    -8.6932  -8.6097  -8.6048  -8.5687  -8.5592  -4.6607   0.3754   3.2340
     4.4722

          k = 0.5000-0.2500 0.7500 (  1918 PWs)   bands (ev):

    -8.6981  -8.6090  -8.6027  -8.5667  -8.5602  -4.3538  -0.1557   3.0604
     4.2874

          k = 0.7500-0.2500 1.0000 (  1936 PWs)   bands (ev):

    -8.7041  -8.6016  -8.5968  -8.5758  -8.5560  -4.4356   0.2072   3.2578
     3.7884

          k = 0.6250-0.1250 0.8750 (  1923 PWs)   bands (ev):

    -8.7061  -8.6037  -8.5947  -8.5729  -8.5583  -4.0935  -0.2272   2.6834
     3.6245

          k = 0.5000 0.0000 0.7500 (  1926 PWs)   bands (ev):

    -8.7016  -8.6069  -8.5976  -8.5696  -8.5605  -4.2161  -0.0737   2.5509
     3.9406

          k =-0.2500-1.0000 0.0000 (  1928 PWs)   bands (ev):

    -8.7133  -8.5965  -8.5913  -8.5782  -8.5551  -3.9771  -0.4068   3.1664
     3.2600

          k =-0.5000-1.0000 0.0000 (  1912 PWs)   bands (ev):

    -8.7072  -8.6044  -8.5923  -8.5724  -8.5594  -3.9538  -0.3218   2.8062
     2.9897

     highest occupied level (ev):     6.0755

!    total energy              =    -191.02560105 Ry
     estimated scf accuracy    <          1.7E-11 Ry

     The total energy is the sum of the following terms:
     one-electron contribution =    -114.72101942 Ry
     hartree contribution      =      72.74957040 Ry
     xc contribution           =     -57.85888628 Ry
     ewald contribution        =     -91.19526574 Ry

     convergence has been achieved in  11 iterations

     Writing all to output data dir ./SCRATCH/gallium_arsenide.save/

     init_run     :      1.02s CPU      1.33s WALL (       1 calls)
     electrons    :     13.06s CPU     17.48s WALL (       1 calls)

     Called by init_run:
     wfcinit      :      0.39s CPU      0.39s WALL (       1 calls)
     potinit      :      0.08s CPU      0.14s WALL (       1 calls)
     hinit0       :      0.45s CPU      0.48s WALL (       1 calls)

     Called by electrons:
     c_bands      :      8.16s CPU      8.25s WALL (      12 calls)
     sum_band     :      2.88s CPU      4.93s WALL (      12 calls)
     v_of_rho     :      0.75s CPU      1.04s WALL (      12 calls)
     newd         :      1.25s CPU      3.54s WALL (      12 calls)
     mix_rho      :      0.09s CPU      0.07s WALL (      12 calls)

     Called by c_bands:
     init_us_2    :      0.25s CPU      0.29s WALL (     725 calls)
     init_us_2:cp :      0.25s CPU      0.28s WALL (     725 calls)
     cegterg      :      7.67s CPU      7.74s WALL (     348 calls)

     Called by *egterg:
     cdiaghg      :      0.06s CPU      0.07s WALL (    1184 calls)
     h_psi        :      6.50s CPU      6.62s WALL (    1242 calls)
     s_psi        :      0.34s CPU      0.33s WALL (    1242 calls)
     g_psi        :      0.05s CPU      0.03s WALL (     865 calls)

     Called by h_psi:
     h_psi:calbec :      0.36s CPU      0.46s WALL (    1242 calls)
     vloc_psi     :      5.83s CPU      5.80s WALL (    1242 calls)
     add_vuspsi   :      0.28s CPU      0.33s WALL (    1242 calls)

     General routines
     calbec       :      0.56s CPU      0.62s WALL (    1590 calls)
     fft          :      0.33s CPU      0.40s WALL (     155 calls)
     ffts         :      0.00s CPU      0.01s WALL (      24 calls)
     fftw         :      5.44s CPU      5.63s WALL (   20188 calls)
     interpolate  :      0.02s CPU      0.04s WALL (      12 calls)


     PWSCF        :     14.16s CPU     18.93s WALL


   This run was terminated on:  11:16:25  11Jun2024            

=------------------------------------------------------------------------------=
   JOB DONE.
=------------------------------------------------------------------------------=
