
     Program BANDS v.7.2 starts on 23Mar2024 at  9:41:45 

     This program is part of the open-source Quantum ESPRESSO suite
     for quantum simulation of materials; please cite
         "P. Giannozzi et al., J. Phys.:Condens. Matter 21 395502 (2009);
         "P. Giannozzi et al., J. Phys.:Condens. Matter 29 465901 (2017);
         "P. Giannozzi et al., J. Chem. Phys. 152 154105 (2020);
          URL http://www.quantum-espresso.org", 
     in publications or presentations arising from this work. More details at
     http://www.quantum-espresso.org/quote

     Serial version
     10597 MiB available memory on the printing compute node when the environment starts


     Reading xml data from directory:

     ./SCRATCH/gallium arsenide.save/
     file Ga.pz-dn-rrkjus_psl.0.2.UPF: wavefunction(s)  4S 3D renormalized

     IMPORTANT: XC functional enforced from input :
     Exchange-correlation= PZ
                           (   1   1   0   0   0   0   0)
     Any further DFT definition will be discarded
     Please, verify this is what you really want


     G-vector sticks info
     --------------------
     sticks:   dense  smooth     PW     G-vecs:    dense   smooth      PW
     Sum        2479    1237    361                81451    28763    4477

     Using Slab Decomposition

     Reading collected, re-writing distributed wavefunctions
     high-symmetry point:  0.0000 0.0000 1.0000   x coordinate   0.0000
     high-symmetry point:  0.0000 0.0000 0.0000   x coordinate   1.0000
     high-symmetry point: -0.5000 0.5000 0.5000   x coordinate   1.8660
     high-symmetry point: -0.5000 0.0000 1.0000   x coordinate   2.5731
     high-symmetry point: -0.7500 0.0000 0.7500   x coordinate   2.9267
     high-symmetry point:  0.0000 0.0000 0.0000   x coordinate   3.9873

     Plottable bands (eV) written to file bands_gaas_10.dat.gnu
     Bands written to file bands_gaas_10.dat

 **************************************************************************

                    xk=(   0.00000,   0.00000,   1.00000  )

     point group D_2d (-42m)
     there are  5 classes
     the character table:

       E     2S4   C2    2C2'  2s_d 
A_1    1.00  1.00  1.00  1.00  1.00
A_2    1.00  1.00  1.00 -1.00 -1.00
B_1    1.00 -1.00  1.00  1.00 -1.00
B_2    1.00 -1.00  1.00 -1.00  1.00
E      2.00  0.00 -2.00  0.00  0.00

     the symmetry operations in each class and the name of the first element:

     E        1
                                                                 
     2S4      7    8
                                                                 
     C2       2
                                                                 
     2C2'     3    4
                                                                 
     2s_d     5    6
                                                                 

     Band symmetry, D_2d (-42m) point group:

     e(  1 -  1) =     -8.31355  eV     1   --> B_2  X_3  W_2  
     e(  2 -  3) =     -8.14272  eV     2   --> E    X_5  W_3  
     e(  4 -  4) =     -8.13926  eV     1   --> A_1  X_1  W_1  
     e(  5 -  5) =     -8.09633  eV     1   --> B_1  X_2  W_1' 
     e(  6 -  6) =     -3.62076  eV     1   --> B_2  X_3  W_2  
     e(  7 -  7) =     -0.25691  eV     1   --> A_1  X_1  W_1  
     e(  8 -  9) =      3.96606  eV     2   --> E    X_5  W_3  
     e( 10 - 10) =      8.03243  eV     1   --> B_2  X_3  W_2  

 **************************************************************************

 **************************************************************************

                    xk=(   0.00000,   0.00000,   0.97500  )

     point group C_2v (mm2) 
     there are  4 classes
     the character table:

       E     C2    s_v   s_v' 
A_1    1.00  1.00  1.00  1.00
A_2    1.00  1.00 -1.00 -1.00
B_1    1.00 -1.00  1.00 -1.00
B_2    1.00 -1.00 -1.00  1.00

     the symmetry operations in each class and the name of the first element:

     E        1
                                                                 
     C2       2
                                                                 
     s_v      3
                                                                 
     s_v'     4
                                                                 

     Band symmetry, C_2v (mm2)  point group:

     e(  1 -  1) =     -8.31341  eV     1   --> A_1  D_1  S_1  
     e(  2 -  3) =     -8.14280  eV     2   --> B_1  D_3  S_3  
     e(  2 -  3) =     -8.14280  eV     2   --> B_2  D_4  S_4  
     e(  4 -  4) =     -8.13921  eV     1   --> A_1  D_1  S_1  
     e(  5 -  5) =     -8.09636  eV     1   --> A_2  D_2  S_2  
     e(  6 -  6) =     -3.62925  eV     1   --> A_1  D_1  S_1  
     e(  7 -  7) =     -0.24542  eV     1   --> A_1  D_1  S_1  
     e(  8 -  9) =      3.96872  eV     2   --> B_1  D_3  S_3  
     e(  8 -  9) =      3.96872  eV     2   --> B_2  D_4  S_4  
     e( 10 - 10) =      8.02840  eV     1   --> A_1  D_1  S_1  

 **************************************************************************

 **************************************************************************

                    xk=(   0.00000,   0.00000,   0.95000  )

     Band symmetry, C_2v (mm2)  point group:

     e(  1 -  1) =     -8.31300  eV     1   --> A_1  D_1  S_1  
     e(  2 -  3) =     -8.14306  eV     2   --> B_1  D_3  S_3  
     e(  2 -  3) =     -8.14306  eV     2   --> B_2  D_4  S_4  
     e(  4 -  4) =     -8.13906  eV     1   --> A_1  D_1  S_1  
     e(  5 -  5) =     -8.09643  eV     1   --> A_2  D_2  S_2  
     e(  6 -  6) =     -3.65434  eV     1   --> A_1  D_1  S_1  
     e(  7 -  7) =     -0.21133  eV     1   --> A_1  D_1  S_1  
     e(  8 -  9) =      3.97670  eV     2   --> B_1  D_3  S_3  
     e(  8 -  9) =      3.97670  eV     2   --> B_2  D_4  S_4  
     e( 10 - 10) =      8.01860  eV     1   --> A_1  D_1  S_1  

 **************************************************************************

 **************************************************************************

                    xk=(   0.00000,   0.00000,   0.92500  )

     Band symmetry, C_2v (mm2)  point group:

     e(  1 -  1) =     -8.31231  eV     1   --> A_1  D_1  S_1  
     e(  2 -  3) =     -8.14348  eV     2   --> B_1  D_3  S_3  
     e(  2 -  3) =     -8.14348  eV     2   --> B_2  D_4  S_4  
     e(  4 -  4) =     -8.13882  eV     1   --> A_1  D_1  S_1  
     e(  5 -  5) =     -8.09654  eV     1   --> A_2  D_2  S_2  
     e(  6 -  6) =     -3.69498  eV     1   --> A_1  D_1  S_1  
     e(  7 -  7) =     -0.15569  eV     1   --> A_1  D_1  S_1  
     e(  8 -  9) =      3.99000  eV     2   --> B_1  D_3  S_3  
     e(  8 -  9) =      3.99000  eV     2   --> B_2  D_4  S_4  
     e( 10 - 10) =      8.00738  eV     1   --> A_1  D_1  S_1  

 **************************************************************************

 **************************************************************************

                    xk=(   0.00000,   0.00000,   0.90000  )

     Band symmetry, C_2v (mm2)  point group:

     e(  1 -  1) =     -8.31134  eV     1   --> A_1  D_1  S_1  
     e(  2 -  3) =     -8.14407  eV     2   --> B_1  D_3  S_3  
     e(  2 -  3) =     -8.14407  eV     2   --> B_2  D_4  S_4  
     e(  4 -  4) =     -8.13848  eV     1   --> A_1  D_1  S_1  
     e(  5 -  5) =     -8.09670  eV     1   --> A_2  D_2  S_2  
     e(  6 -  6) =     -3.74961  eV     1   --> A_1  D_1  S_1  
     e(  7 -  7) =     -0.08009  eV     1   --> A_1  D_1  S_1  
     e(  8 -  9) =      4.00860  eV     2   --> B_1  D_3  S_3  
     e(  8 -  9) =      4.00860  eV     2   --> B_2  D_4  S_4  
     e( 10 - 10) =      7.99810  eV     1   --> A_1  D_1  S_1  

 **************************************************************************

 **************************************************************************

                    xk=(   0.00000,   0.00000,   0.87500  )

     Band symmetry, C_2v (mm2)  point group:

     e(  1 -  1) =     -8.31011  eV     1   --> A_1  D_1  S_1  
     e(  2 -  3) =     -8.14482  eV     2   --> B_1  D_3  S_3  
     e(  2 -  3) =     -8.14482  eV     2   --> B_2  D_4  S_4  
     e(  4 -  4) =     -8.13805  eV     1   --> A_1  D_1  S_1  
     e(  5 -  5) =     -8.09691  eV     1   --> A_2  D_2  S_2  
     e(  6 -  6) =     -3.81635  eV     1   --> A_1  D_1  S_1  
     e(  7 -  7) =      0.01357  eV     1   --> A_1  D_1  S_1  
     e(  8 -  9) =      4.03246  eV     2   --> B_1  D_3  S_3  
     e(  8 -  9) =      4.03246  eV     2   --> B_2  D_4  S_4  
     e( 10 - 10) =      7.99269  eV     1   --> A_1  D_1  S_1  

 **************************************************************************

 **************************************************************************

                    xk=(   0.00000,   0.00000,   0.85000  )

     Band symmetry, C_2v (mm2)  point group:

     e(  1 -  1) =     -8.30861  eV     1   --> A_1  D_1  S_1  
     e(  2 -  3) =     -8.14573  eV     2   --> B_1  D_3  S_3  
     e(  2 -  3) =     -8.14573  eV     2   --> B_2  D_4  S_4  
     e(  4 -  4) =     -8.13753  eV     1   --> A_1  D_1  S_1  
     e(  5 -  5) =     -8.09716  eV     1   --> A_2  D_2  S_2  
     e(  6 -  6) =     -3.89322  eV     1   --> A_1  D_1  S_1  
     e(  7 -  7) =      0.12329  eV     1   --> A_1  D_1  S_1  
     e(  8 -  9) =      4.06156  eV     2   --> B_1  D_3  S_3  
     e(  8 -  9) =      4.06156  eV     2   --> B_2  D_4  S_4  
     e( 10 - 10) =      7.99222  eV     1   --> A_1  D_1  S_1  

 **************************************************************************

 **************************************************************************

                    xk=(   0.00000,   0.00000,   0.82500  )

     Band symmetry, C_2v (mm2)  point group:

     e(  1 -  1) =     -8.30684  eV     1   --> A_1  D_1  S_1  
     e(  2 -  3) =     -8.14678  eV     2   --> B_1  D_3  S_3  
     e(  2 -  3) =     -8.14678  eV     2   --> B_2  D_4  S_4  
     e(  4 -  4) =     -8.13692  eV     1   --> A_1  D_1  S_1  
     e(  5 -  5) =     -8.09745  eV     1   --> A_2  D_2  S_2  
     e(  6 -  6) =     -3.97828  eV     1   --> A_1  D_1  S_1  
     e(  7 -  7) =      0.24711  eV     1   --> A_1  D_1  S_1  
     e(  8 -  9) =      4.09587  eV     2   --> B_1  D_3  S_3  
     e(  8 -  9) =      4.09587  eV     2   --> B_2  D_4  S_4  
     e( 10 - 10) =      7.99726  eV     1   --> A_1  D_1  S_1  

 **************************************************************************

 **************************************************************************

                    xk=(   0.00000,   0.00000,   0.80000  )

     Band symmetry, C_2v (mm2)  point group:

     e(  1 -  1) =     -8.30482  eV     1   --> A_1  D_1  S_1  
     e(  2 -  3) =     -8.14798  eV     2   --> B_1  D_3  S_3  
     e(  2 -  3) =     -8.14798  eV     2   --> B_2  D_4  S_4  
     e(  4 -  4) =     -8.13624  eV     1   --> A_1  D_1  S_1  
     e(  5 -  5) =     -8.09778  eV     1   --> A_2  D_2  S_2  
     e(  6 -  6) =     -4.06974  eV     1   --> A_1  D_1  S_1  
     e(  7 -  7) =      0.38321  eV     1   --> A_1  D_1  S_1  
     e(  8 -  9) =      4.13533  eV     2   --> B_1  D_3  S_3  
     e(  8 -  9) =      4.13533  eV     2   --> B_2  D_4  S_4  
     e( 10 - 10) =      8.00811  eV     1   --> A_1  D_1  S_1  

 **************************************************************************

 **************************************************************************

                    xk=(   0.00000,   0.00000,   0.77500  )

     Band symmetry, C_2v (mm2)  point group:

     e(  1 -  1) =     -8.30254  eV     1   --> A_1  D_1  S_1  
     e(  2 -  3) =     -8.14931  eV     2   --> B_1  D_3  S_3  
     e(  2 -  3) =     -8.14931  eV     2   --> B_2  D_4  S_4  
     e(  4 -  4) =     -8.13547  eV     1   --> A_1  D_1  S_1  
     e(  5 -  5) =     -8.09815  eV     1   --> A_2  D_2  S_2  
     e(  6 -  6) =     -4.16601  eV     1   --> A_1  D_1  S_1  
     e(  7 -  7) =      0.52995  eV     1   --> A_1  D_1  S_1  
     e(  8 -  9) =      4.17990  eV     2   --> B_1  D_3  S_3  
     e(  8 -  9) =      4.17990  eV     2   --> B_2  D_4  S_4  
     e( 10 - 10) =      8.02492  eV     1   --> A_1  D_1  S_1  

 **************************************************************************

 **************************************************************************

                    xk=(   0.00000,   0.00000,   0.75000  )

     Band symmetry, C_2v (mm2)  point group:

     e(  1 -  1) =     -8.30002  eV     1   --> A_1  D_1  S_1  
     e(  2 -  3) =     -8.15077  eV     2   --> B_1  D_3  S_3  
     e(  2 -  3) =     -8.15077  eV     2   --> B_2  D_4  S_4  
     e(  4 -  4) =     -8.13464  eV     1   --> A_1  D_1  S_1  
     e(  5 -  5) =     -8.09855  eV     1   --> A_2  D_2  S_2  
     e(  6 -  6) =     -4.26570  eV     1   --> A_1  D_1  S_1  
     e(  7 -  7) =      0.68590  eV     1   --> A_1  D_1  S_1  
     e(  8 -  9) =      4.22950  eV     2   --> B_1  D_3  S_3  
     e(  8 -  9) =      4.22950  eV     2   --> B_2  D_4  S_4  
     e( 10 - 10) =      8.04778  eV     1   --> A_1  D_1  S_1  

 **************************************************************************

 **************************************************************************

                    xk=(   0.00000,   0.00000,   0.72500  )

     Band symmetry, C_2v (mm2)  point group:

     e(  1 -  1) =     -8.29726  eV     1   --> A_1  D_1  S_1  
     e(  2 -  3) =     -8.15234  eV     2   --> B_1  D_3  S_3  
     e(  2 -  3) =     -8.15234  eV     2   --> B_2  D_4  S_4  
     e(  4 -  4) =     -8.13375  eV     1   --> A_1  D_1  S_1  
     e(  5 -  5) =     -8.09899  eV     1   --> A_2  D_2  S_2  
     e(  6 -  6) =     -4.36762  eV     1   --> A_1  D_1  S_1  
     e(  7 -  7) =      0.84984  eV     1   --> A_1  D_1  S_1  
     e(  8 -  9) =      4.28407  eV     2   --> B_1  D_3  S_3  
     e(  8 -  9) =      4.28407  eV     2   --> B_2  D_4  S_4  
     e( 10 - 10) =      8.07668  eV     1   --> A_1  D_1  S_1  

 **************************************************************************

 **************************************************************************

                    xk=(   0.00000,   0.00000,   0.70000  )

     Band symmetry, C_2v (mm2)  point group:

     e(  1 -  1) =     -8.29427  eV     1   --> A_1  D_1  S_1  
     e(  2 -  3) =     -8.15401  eV     2   --> B_1  D_3  S_3  
     e(  2 -  3) =     -8.15401  eV     2   --> B_2  D_4  S_4  
     e(  4 -  4) =     -8.13280  eV     1   --> A_1  D_1  S_1  
     e(  5 -  5) =     -8.09946  eV     1   --> A_2  D_2  S_2  
     e(  6 -  6) =     -4.47075  eV     1   --> A_1  D_1  S_1  
     e(  7 -  7) =      1.02072  eV     1   --> A_1  D_1  S_1  
     e(  8 -  9) =      4.34352  eV     2   --> B_1  D_3  S_3  
     e(  8 -  9) =      4.34352  eV     2   --> B_2  D_4  S_4  
     e( 10 - 10) =      8.11162  eV     1   --> A_1  D_1  S_1  

 **************************************************************************

 **************************************************************************

                    xk=(   0.00000,   0.00000,   0.67500  )

     Band symmetry, C_2v (mm2)  point group:

     e(  1 -  1) =     -8.29106  eV     1   --> A_1  D_1  S_1  
     e(  2 -  3) =     -8.15578  eV     2   --> B_1  D_3  S_3  
     e(  2 -  3) =     -8.15578  eV     2   --> B_2  D_4  S_4  
     e(  4 -  4) =     -8.13180  eV     1   --> A_1  D_1  S_1  
     e(  5 -  5) =     -8.09995  eV     1   --> A_2  D_2  S_2  
     e(  6 -  6) =     -4.57425  eV     1   --> A_1  D_1  S_1  
     e(  7 -  7) =      1.19765  eV     1   --> A_1  D_1  S_1  
     e(  8 -  9) =      4.40777  eV     2   --> B_1  D_3  S_3  
     e(  8 -  9) =      4.40777  eV     2   --> B_2  D_4  S_4  
     e( 10 - 10) =      8.15253  eV     1   --> A_1  D_1  S_1  

 **************************************************************************

 **************************************************************************

                    xk=(   0.00000,   0.00000,   0.65000  )

     Band symmetry, C_2v (mm2)  point group:

     e(  1 -  1) =     -8.28764  eV     1   --> A_1  D_1  S_1  
     e(  2 -  3) =     -8.15763  eV     2   --> B_1  D_3  S_3  
     e(  2 -  3) =     -8.15763  eV     2   --> B_2  D_4  S_4  
     e(  4 -  4) =     -8.13076  eV     1   --> A_1  D_1  S_1  
     e(  5 -  5) =     -8.10047  eV     1   --> A_2  D_2  S_2  
     e(  6 -  6) =     -4.67737  eV     1   --> A_1  D_1  S_1  
     e(  7 -  7) =      1.37986  eV     1   --> A_1  D_1  S_1  
     e(  8 -  9) =      4.47671  eV     2   --> B_1  D_3  S_3  
     e(  8 -  9) =      4.47671  eV     2   --> B_2  D_4  S_4  
     e( 10 - 10) =      8.19935  eV     1   --> A_1  D_1  S_1  

 **************************************************************************

 **************************************************************************

                    xk=(   0.00000,   0.00000,   0.62500  )

     Band symmetry, C_2v (mm2)  point group:

     e(  1 -  1) =     -8.28402  eV     1   --> A_1  D_1  S_1  
     e(  2 -  3) =     -8.15955  eV     2   --> B_1  D_3  S_3  
     e(  2 -  3) =     -8.15955  eV     2   --> B_2  D_4  S_4  
     e(  4 -  4) =     -8.12968  eV     1   --> A_1  D_1  S_1  
     e(  5 -  5) =     -8.10101  eV     1   --> A_2  D_2  S_2  
     e(  6 -  6) =     -4.77953  eV     1   --> A_1  D_1  S_1  
     e(  7 -  7) =      1.56672  eV     1   --> A_1  D_1  S_1  
     e(  8 -  9) =      4.55022  eV     2   --> B_1  D_3  S_3  
     e(  8 -  9) =      4.55022  eV     2   --> B_2  D_4  S_4  
     e( 10 - 10) =      8.25196  eV     1   --> A_1  D_1  S_1  

 **************************************************************************

 **************************************************************************

                    xk=(   0.00000,   0.00000,   0.60000  )

     Band symmetry, C_2v (mm2)  point group:

     e(  1 -  1) =     -8.28022  eV     1   --> A_1  D_1  S_1  
     e(  2 -  3) =     -8.16152  eV     2   --> B_1  D_3  S_3  
     e(  2 -  3) =     -8.16152  eV     2   --> B_2  D_4  S_4  
     e(  4 -  4) =     -8.12858  eV     1   --> A_1  D_1  S_1  
     e(  5 -  5) =     -8.10157  eV     1   --> A_2  D_2  S_2  
     e(  6 -  6) =     -4.88019  eV     1   --> A_1  D_1  S_1  
     e(  7 -  7) =      1.75768  eV     1   --> A_1  D_1  S_1  
     e(  8 -  9) =      4.62817  eV     2   --> B_1  D_3  S_3  
     e(  8 -  9) =      4.62817  eV     2   --> B_2  D_4  S_4  
     e( 10 - 10) =      8.31025  eV     1   --> A_1  D_1  S_1  

 **************************************************************************

 **************************************************************************

                    xk=(   0.00000,   0.00000,   0.57500  )

     Band symmetry, C_2v (mm2)  point group:

     e(  1 -  1) =     -8.27624  eV     1   --> A_1  D_1  S_1  
     e(  2 -  3) =     -8.16354  eV     2   --> B_1  D_3  S_3  
     e(  2 -  3) =     -8.16354  eV     2   --> B_2  D_4  S_4  
     e(  4 -  4) =     -8.12746  eV     1   --> A_1  D_1  S_1  
     e(  5 -  5) =     -8.10215  eV     1   --> A_2  D_2  S_2  
     e(  6 -  6) =     -4.97891  eV     1   --> A_1  D_1  S_1  
     e(  7 -  7) =      1.95228  eV     1   --> A_1  D_1  S_1  
     e(  8 -  9) =      4.71042  eV     2   --> B_1  D_3  S_3  
     e(  8 -  9) =      4.71042  eV     2   --> B_2  D_4  S_4  
     e( 10 - 10) =      8.37406  eV     1   --> A_1  D_1  S_1  

 **************************************************************************

 **************************************************************************

                    xk=(   0.00000,   0.00000,   0.55000  )

     Band symmetry, C_2v (mm2)  point group:

     e(  1 -  1) =     -8.27210  eV     1   --> A_1  D_1  S_1  
     e(  2 -  3) =     -8.16559  eV     2   --> B_1  D_3  S_3  
     e(  2 -  3) =     -8.16559  eV     2   --> B_2  D_4  S_4  
     e(  4 -  4) =     -8.12633  eV     1   --> A_1  D_1  S_1  
     e(  5 -  5) =     -8.10273  eV     1   --> A_2  D_2  S_2  
     e(  6 -  6) =     -5.07532  eV     1   --> A_1  D_1  S_1  
     e(  7 -  7) =      2.15011  eV     1   --> A_1  D_1  S_1  
     e(  8 -  9) =      4.79680  eV     2   --> B_1  D_3  S_3  
     e(  8 -  9) =      4.79680  eV     2   --> B_2  D_4  S_4  
     e( 10 - 10) =      8.44322  eV     1   --> A_1  D_1  S_1  

 **************************************************************************

 **************************************************************************

                    xk=(   0.00000,   0.00000,   0.52500  )

     Band symmetry, C_2v (mm2)  point group:

     e(  1 -  1) =     -8.26783  eV     1   --> A_1  D_1  S_1  
     e(  2 -  3) =     -8.16766  eV     2   --> B_1  D_3  S_3  
     e(  2 -  3) =     -8.16766  eV     2   --> B_2  D_4  S_4  
     e(  4 -  4) =     -8.12520  eV     1   --> A_1  D_1  S_1  
     e(  5 -  5) =     -8.10332  eV     1   --> A_2  D_2  S_2  
     e(  6 -  6) =     -5.16908  eV     1   --> A_1  D_1  S_1  
     e(  7 -  7) =      2.35085  eV     1   --> A_1  D_1  S_1  
     e(  8 -  9) =      4.88711  eV     2   --> B_1  D_3  S_3  
     e(  8 -  9) =      4.88711  eV     2   --> B_2  D_4  S_4  
     e( 10 - 10) =      8.51750  eV     1   --> A_1  D_1  S_1  

 **************************************************************************

 **************************************************************************

                    xk=(   0.00000,   0.00000,   0.50000  )

     Band symmetry, C_2v (mm2)  point group:

     e(  1 -  1) =     -8.26343  eV     1   --> A_1  D_1  S_1  
     e(  2 -  3) =     -8.16973  eV     2   --> B_1  D_3  S_3  
     e(  2 -  3) =     -8.16973  eV     2   --> B_2  D_4  S_4  
     e(  4 -  4) =     -8.12407  eV     1   --> A_1  D_1  S_1  
     e(  5 -  5) =     -8.10392  eV     1   --> A_2  D_2  S_2  
     e(  6 -  6) =     -5.25992  eV     1   --> A_1  D_1  S_1  
     e(  7 -  7) =      2.55420  eV     1   --> A_1  D_1  S_1  
     e(  8 -  9) =      4.98116  eV     2   --> B_1  D_3  S_3  
     e(  8 -  9) =      4.98116  eV     2   --> B_2  D_4  S_4  
     e( 10 - 10) =      8.59663  eV     1   --> A_1  D_1  S_1  

 **************************************************************************

 **************************************************************************

                    xk=(   0.00000,   0.00000,   0.47500  )

     Band symmetry, C_2v (mm2)  point group:

     e(  1 -  1) =     -8.25894  eV     1   --> A_1  D_1  S_1  
     e(  2 -  3) =     -8.17180  eV     2   --> B_1  D_3  S_3  
     e(  2 -  3) =     -8.17180  eV     2   --> B_2  D_4  S_4  
     e(  4 -  4) =     -8.12296  eV     1   --> A_1  D_1  S_1  
     e(  5 -  5) =     -8.10451  eV     1   --> A_2  D_2  S_2  
     e(  6 -  6) =     -5.34759  eV     1   --> A_1  D_1  S_1  
     e(  7 -  7) =      2.75993  eV     1   --> A_1  D_1  S_1  
     e(  8 -  9) =      5.07869  eV     2   --> B_1  D_3  S_3  
     e(  8 -  9) =      5.07869  eV     2   --> B_2  D_4  S_4  
     e( 10 - 10) =      8.68024  eV     1   --> A_1  D_1  S_1  

 **************************************************************************

 **************************************************************************

                    xk=(   0.00000,   0.00000,   0.45000  )

     Band symmetry, C_2v (mm2)  point group:

     e(  1 -  1) =     -8.25436  eV     1   --> A_1  D_1  S_1  
     e(  2 -  3) =     -8.17385  eV     2   --> B_1  D_3  S_3  
     e(  2 -  3) =     -8.17385  eV     2   --> B_2  D_4  S_4  
     e(  4 -  4) =     -8.12187  eV     1   --> A_1  D_1  S_1  
     e(  5 -  5) =     -8.10511  eV     1   --> A_2  D_2  S_2  
     e(  6 -  6) =     -5.43186  eV     1   --> A_1  D_1  S_1  
     e(  7 -  7) =      2.96782  eV     1   --> A_1  D_1  S_1  
     e(  8 -  9) =      5.17943  eV     2   --> B_1  D_3  S_3  
     e(  8 -  9) =      5.17943  eV     2   --> B_2  D_4  S_4  
     e( 10 - 10) =      8.76785  eV     1   --> A_1  D_1  S_1  

 **************************************************************************

 **************************************************************************

                    xk=(   0.00000,   0.00000,   0.42500  )

     Band symmetry, C_2v (mm2)  point group:

     e(  1 -  1) =     -8.24974  eV     1   --> A_1  D_1  S_1  
     e(  2 -  3) =     -8.17586  eV     2   --> B_1  D_3  S_3  
     e(  2 -  3) =     -8.17586  eV     2   --> B_2  D_4  S_4  
     e(  4 -  4) =     -8.12081  eV     1   --> A_1  D_1  S_1  
     e(  5 -  5) =     -8.10569  eV     1   --> A_2  D_2  S_2  
     e(  6 -  6) =     -5.51255  eV     1   --> A_1  D_1  S_1  
     e(  7 -  7) =      3.17769  eV     1   --> A_1  D_1  S_1  
     e(  8 -  9) =      5.28307  eV     2   --> B_1  D_3  S_3  
     e(  8 -  9) =      5.28307  eV     2   --> B_2  D_4  S_4  
     e( 10 - 10) =      8.85879  eV     1   --> A_1  D_1  S_1  

 **************************************************************************

 **************************************************************************

                    xk=(   0.00000,   0.00000,   0.40000  )

     Band symmetry, C_2v (mm2)  point group:

     e(  1 -  1) =     -8.24508  eV     1   --> A_1  D_1  S_1  
     e(  2 -  3) =     -8.17783  eV     2   --> B_1  D_3  S_3  
     e(  2 -  3) =     -8.17783  eV     2   --> B_2  D_4  S_4  
     e(  4 -  4) =     -8.11978  eV     1   --> A_1  D_1  S_1  
     e(  5 -  5) =     -8.10627  eV     1   --> A_2  D_2  S_2  
     e(  6 -  6) =     -5.58947  eV     1   --> A_1  D_1  S_1  
     e(  7 -  7) =      3.38939  eV     1   --> A_1  D_1  S_1  
     e(  8 -  9) =      5.38923  eV     2   --> B_1  D_3  S_3  
     e(  8 -  9) =      5.38923  eV     2   --> B_2  D_4  S_4  
     e( 10 - 10) =      8.95199  eV     1   --> A_1  D_1  S_1  

 **************************************************************************

 **************************************************************************

                    xk=(   0.00000,   0.00000,   0.37500  )

     Band symmetry, C_2v (mm2)  point group:

     e(  1 -  1) =     -8.24042  eV     1   --> A_1  D_1  S_1  
     e(  2 -  3) =     -8.17974  eV     2   --> B_1  D_3  S_3  
     e(  2 -  3) =     -8.17974  eV     2   --> B_2  D_4  S_4  
     e(  4 -  4) =     -8.11879  eV     1   --> A_1  D_1  S_1  
     e(  5 -  5) =     -8.10682  eV     1   --> A_2  D_2  S_2  
     e(  6 -  6) =     -5.66249  eV     1   --> A_1  D_1  S_1  
     e(  7 -  7) =      3.60279  eV     1   --> A_1  D_1  S_1  
     e(  8 -  9) =      5.49750  eV     2   --> B_1  D_3  S_3  
     e(  8 -  9) =      5.49750  eV     2   --> B_2  D_4  S_4  
     e( 10 - 10) =      9.04564  eV     1   --> A_1  D_1  S_1  

 **************************************************************************

 **************************************************************************

                    xk=(   0.00000,   0.00000,   0.35000  )

     Band symmetry, C_2v (mm2)  point group:

     e(  1 -  1) =     -8.23580  eV     1   --> A_1  D_1  S_1  
     e(  2 -  3) =     -8.18158  eV     2   --> B_1  D_3  S_3  
     e(  2 -  3) =     -8.18158  eV     2   --> B_2  D_4  S_4  
     e(  4 -  4) =     -8.11786  eV     1   --> A_1  D_1  S_1  
     e(  5 -  5) =     -8.10737  eV     1   --> A_2  D_2  S_2  
     e(  6 -  6) =     -5.73145  eV     1   --> A_1  D_1  S_1  
     e(  7 -  7) =      3.81777  eV     1   --> A_1  D_1  S_1  
     e(  8 -  9) =      5.60739  eV     2   --> B_1  D_3  S_3  
     e(  8 -  9) =      5.60739  eV     2   --> B_2  D_4  S_4  
     e( 10 - 10) =      9.13603  eV     1   --> A_1  D_1  S_1  

 **************************************************************************

 **************************************************************************

                    xk=(   0.00000,   0.00000,   0.32500  )

     Band symmetry, C_2v (mm2)  point group:

     e(  1 -  1) =     -8.23124  eV     1   --> A_1  D_1  S_1  
     e(  2 -  3) =     -8.18335  eV     2   --> B_1  D_3  S_3  
     e(  2 -  3) =     -8.18335  eV     2   --> B_2  D_4  S_4  
     e(  4 -  4) =     -8.11698  eV     1   --> A_1  D_1  S_1  
     e(  5 -  5) =     -8.10789  eV     1   --> A_2  D_2  S_2  
     e(  6 -  6) =     -5.79622  eV     1   --> A_1  D_1  S_1  
     e(  7 -  7) =      4.03423  eV     1   --> A_1  D_1  S_1  
     e(  8 -  9) =      5.71832  eV     2   --> B_1  D_3  S_3  
     e(  8 -  9) =      5.71832  eV     2   --> B_2  D_4  S_4  
     e( 10 - 10) =      9.21427  eV     1   --> A_1  D_1  S_1  

 **************************************************************************

 **************************************************************************

                    xk=(   0.00000,   0.00000,   0.30000  )

     Band symmetry, C_2v (mm2)  point group:

     e(  1 -  1) =     -8.22679  eV     1   --> A_1  D_1  S_1  
     e(  2 -  3) =     -8.18503  eV     2   --> B_1  D_3  S_3  
     e(  2 -  3) =     -8.18503  eV     2   --> B_2  D_4  S_4  
     e(  4 -  4) =     -8.11615  eV     1   --> A_1  D_1  S_1  
     e(  5 -  5) =     -8.10838  eV     1   --> A_2  D_2  S_2  
     e(  6 -  6) =     -5.85669  eV     1   --> A_1  D_1  S_1  
     e(  7 -  7) =      4.25207  eV     1   --> A_1  D_1  S_1  
     e(  8 -  9) =      5.82962  eV     2   --> B_1  D_3  S_3  
     e(  8 -  9) =      5.82962  eV     2   --> B_2  D_4  S_4  
     e( 10 - 10) =      9.25654  eV     1   --> A_1  D_1  S_1  

 **************************************************************************

 **************************************************************************

                    xk=(   0.00000,   0.00000,   0.27500  )

     Band symmetry, C_2v (mm2)  point group:

     e(  1 -  1) =     -8.22247  eV     1   --> A_1  D_1  S_1  
     e(  2 -  3) =     -8.18661  eV     2   --> B_1  D_3  S_3  
     e(  2 -  3) =     -8.18661  eV     2   --> B_2  D_4  S_4  
     e(  4 -  4) =     -8.11539  eV     1   --> A_1  D_1  S_1  
     e(  5 -  5) =     -8.10885  eV     1   --> A_2  D_2  S_2  
     e(  6 -  6) =     -5.91276  eV     1   --> A_1  D_1  S_1  
     e(  7 -  7) =      4.47120  eV     1   --> A_1  D_1  S_1  
     e(  8 -  9) =      5.94050  eV     2   --> B_1  D_3  S_3  
     e(  8 -  9) =      5.94050  eV     2   --> B_2  D_4  S_4  
     e( 10 - 10) =      9.22046  eV     1   --> A_1  D_1  S_1  

 **************************************************************************

 **************************************************************************

                    xk=(   0.00000,   0.00000,   0.25000  )

     Band symmetry, C_2v (mm2)  point group:

     e(  1 -  1) =     -8.21833  eV     1   --> A_1  D_1  S_1  
     e(  2 -  3) =     -8.18808  eV     2   --> B_1  D_3  S_3  
     e(  2 -  3) =     -8.18808  eV     2   --> B_2  D_4  S_4  
     e(  4 -  4) =     -8.11470  eV     1   --> A_1  D_1  S_1  
     e(  5 -  5) =     -8.10929  eV     1   --> A_2  D_2  S_2  
     e(  6 -  6) =     -5.96431  eV     1   --> A_1  D_1  S_1  
     e(  7 -  7) =      4.69150  eV     1   --> A_1  D_1  S_1  
     e(  8 -  9) =      6.05001  eV     2   --> B_1  D_3  S_3  
     e(  8 -  9) =      6.05001  eV     2   --> B_2  D_4  S_4  
     e( 10 - 10) =      9.10194  eV     1   --> A_1  D_1  S_1  

 **************************************************************************

 **************************************************************************

                    xk=(   0.00000,   0.00000,   0.22500  )

     Band symmetry, C_2v (mm2)  point group:

     e(  1 -  1) =     -8.21441  eV     1   --> A_1  D_1  S_1  
     e(  2 -  3) =     -8.18944  eV     2   --> B_1  D_3  S_3  
     e(  2 -  3) =     -8.18944  eV     2   --> B_2  D_4  S_4  
     e(  4 -  4) =     -8.11407  eV     1   --> A_1  D_1  S_1  
     e(  5 -  5) =     -8.10969  eV     1   --> A_2  D_2  S_2  
     e(  6 -  6) =     -6.01125  eV     1   --> A_1  D_1  S_1  
     e(  7 -  7) =      4.91286  eV     1   --> A_1  D_1  S_1  
     e(  8 -  9) =      6.15706  eV     2   --> B_1  D_3  S_3  
     e(  8 -  9) =      6.15706  eV     2   --> B_2  D_4  S_4  
     e( 10 - 10) =      8.93775  eV     1   --> A_1  D_1  S_1  

 **************************************************************************

 **************************************************************************

                    xk=(   0.00000,   0.00000,   0.20000  )

     Band symmetry, C_2v (mm2)  point group:

     e(  1 -  1) =     -8.21075  eV     1   --> A_1  D_1  S_1  
     e(  2 -  3) =     -8.19068  eV     2   --> B_1  D_3  S_3  
     e(  2 -  3) =     -8.19068  eV     2   --> B_2  D_4  S_4  
     e(  4 -  4) =     -8.11352  eV     1   --> A_1  D_1  S_1  
     e(  5 -  5) =     -8.11006  eV     1   --> A_2  D_2  S_2  
     e(  6 -  6) =     -6.05350  eV     1   --> A_1  D_1  S_1  
     e(  7 -  7) =      5.13514  eV     1   --> A_1  D_1  S_1  
     e(  8 -  9) =      6.26036  eV     2   --> B_1  D_3  S_3  
     e(  8 -  9) =      6.26036  eV     2   --> B_2  D_4  S_4  
     e( 10 - 10) =      8.75057  eV     1   --> A_1  D_1  S_1  

 **************************************************************************

 **************************************************************************

                    xk=(   0.00000,   0.00000,   0.17500  )

     Band symmetry, C_2v (mm2)  point group:

     e(  1 -  1) =     -8.20740  eV     1   --> A_1  D_1  S_1  
     e(  2 -  3) =     -8.19178  eV     2   --> B_1  D_3  S_3  
     e(  2 -  3) =     -8.19178  eV     2   --> B_2  D_4  S_4  
     e(  4 -  4) =     -8.11303  eV     1   --> A_1  D_1  S_1  
     e(  5 -  5) =     -8.11040  eV     1   --> A_2  D_2  S_2  
     e(  6 -  6) =     -6.09098  eV     1   --> A_1  D_1  S_1  
     e(  7 -  7) =      5.35811  eV     1   --> A_1  D_1  S_1  
     e(  8 -  9) =      6.35841  eV     2   --> B_1  D_3  S_3  
     e(  8 -  9) =      6.35841  eV     2   --> B_2  D_4  S_4  
     e( 10 - 10) =      8.55019  eV     1   --> A_1  D_1  S_1  

 **************************************************************************

 **************************************************************************

                    xk=(   0.00000,   0.00000,   0.15000  )

     Band symmetry, C_2v (mm2)  point group:

     e(  1 -  1) =     -8.20439  eV     1   --> A_1  D_1  S_1  
     e(  2 -  3) =     -8.19275  eV     2   --> B_1  D_3  S_3  
     e(  2 -  3) =     -8.19275  eV     2   --> B_2  D_4  S_4  
     e(  4 -  4) =     -8.11262  eV     1   --> A_1  D_1  S_1  
     e(  5 -  5) =     -8.11069  eV     1   --> A_2  D_2  S_2  
     e(  6 -  6) =     -6.12362  eV     1   --> A_1  D_1  S_1  
     e(  7 -  7) =      5.58148  eV     1   --> A_1  D_1  S_1  
     e(  8 -  9) =      6.44951  eV     2   --> B_1  D_3  S_3  
     e(  8 -  9) =      6.44951  eV     2   --> B_2  D_4  S_4  
     e( 10 - 10) =      8.34156  eV     1   --> A_1  D_1  S_1  

 **************************************************************************

 **************************************************************************

                    xk=(   0.00000,   0.00000,   0.12500  )

     Band symmetry, C_2v (mm2)  point group:

     e(  1 -  1) =     -8.20176  eV     1   --> A_1  D_1  S_1  
     e(  2 -  3) =     -8.19359  eV     2   --> B_1  D_3  S_3  
     e(  2 -  3) =     -8.19359  eV     2   --> B_2  D_4  S_4  
     e(  4 -  4) =     -8.11227  eV     1   --> A_1  D_1  S_1  
     e(  5 -  5) =     -8.11094  eV     1   --> A_2  D_2  S_2  
     e(  6 -  6) =     -6.15135  eV     1   --> A_1  D_1  S_1  
     e(  7 -  7) =      5.80476  eV     1   --> A_1  D_1  S_1  
     e(  8 -  9) =      6.53174  eV     2   --> B_1  D_3  S_3  
     e(  8 -  9) =      6.53174  eV     2   --> B_2  D_4  S_4  
     e( 10 - 10) =      8.12782  eV     1   --> A_1  D_1  S_1  

 **************************************************************************

 **************************************************************************

                    xk=(   0.00000,   0.00000,   0.10000  )

     Band symmetry, C_2v (mm2)  point group:

     e(  1 -  1) =     -8.19956  eV     1   --> A_1  D_1  S_1  
     e(  2 -  3) =     -8.19427  eV     2   --> B_1  D_3  S_3  
     e(  2 -  3) =     -8.19427  eV     2   --> B_2  D_4  S_4  
     e(  4 -  4) =     -8.11200  eV     1   --> A_1  D_1  S_1  
     e(  5 -  5) =     -8.11114  eV     1   --> A_2  D_2  S_2  
     e(  6 -  6) =     -6.17412  eV     1   --> A_1  D_1  S_1  
     e(  7 -  7) =      6.02705  eV     1   --> A_1  D_1  S_1  
     e(  8 -  9) =      6.60306  eV     2   --> B_1  D_3  S_3  
     e(  8 -  9) =      6.60306  eV     2   --> B_2  D_4  S_4  
     e( 10 - 10) =      7.91157  eV     1   --> A_1  D_1  S_1  

 **************************************************************************

 **************************************************************************

                    xk=(   0.00000,   0.00000,   0.07500  )

     Band symmetry, C_2v (mm2)  point group:

     e(  1 -  1) =     -8.19781  eV     1   --> A_1  D_1  S_1  
     e(  2 -  3) =     -8.19481  eV     2   --> B_1  D_3  S_3  
     e(  2 -  3) =     -8.19481  eV     2   --> B_2  D_4  S_4  
     e(  4 -  4) =     -8.11178  eV     1   --> A_1  D_1  S_1  
     e(  5 -  5) =     -8.11131  eV     1   --> A_2  D_2  S_2  
     e(  6 -  6) =     -6.19188  eV     1   --> A_1  D_1  S_1  
     e(  7 -  7) =      6.24652  eV     1   --> A_1  D_1  S_1  
     e(  8 -  9) =      6.66138  eV     2   --> B_1  D_3  S_3  
     e(  8 -  9) =      6.66138  eV     2   --> B_2  D_4  S_4  
     e( 10 - 10) =      7.69582  eV     1   --> A_1  D_1  S_1  

 **************************************************************************

 **************************************************************************

                    xk=(   0.00000,   0.00000,   0.05000  )

     Band symmetry, C_2v (mm2)  point group:

     e(  1 -  1) =     -8.19654  eV     1   --> A_1  D_1  S_1  
     e(  2 -  3) =     -8.19520  eV     2   --> B_1  D_3  S_3  
     e(  2 -  3) =     -8.19520  eV     2   --> B_2  D_4  S_4  
     e(  4 -  4) =     -8.11163  eV     1   --> A_1  D_1  S_1  
     e(  5 -  5) =     -8.11142  eV     1   --> A_2  D_2  S_2  
     e(  6 -  6) =     -6.20459  eV     1   --> A_1  D_1  S_1  
     e(  7 -  7) =      6.45840  eV     1   --> A_1  D_1  S_1  
     e(  8 -  9) =      6.70473  eV     2   --> B_1  D_3  S_3  
     e(  8 -  9) =      6.70473  eV     2   --> B_2  D_4  S_4  
     e( 10 - 10) =      7.48608  eV     1   --> A_1  D_1  S_1  

 **************************************************************************

 **************************************************************************

                    xk=(   0.00000,   0.00000,   0.02500  )

     Band symmetry, C_2v (mm2)  point group:

     e(  1 -  1) =     -8.19577  eV     1   --> A_1  D_1  S_1  
     e(  2 -  3) =     -8.19543  eV     2   --> B_1  D_3  S_3  
     e(  2 -  3) =     -8.19543  eV     2   --> B_2  D_4  S_4  
     e(  4 -  5) =     -8.11155  eV     2   --> A_1  D_1  S_1  
     e(  4 -  5) =     -8.11155  eV     2   --> A_2  D_2  S_2  
     e(  6 -  6) =     -6.21223  eV     1   --> A_1  D_1  S_1  
     e(  7 -  7) =      6.64626  eV     1   --> A_1  D_1  S_1  
     e(  8 -  9) =      6.73147  eV     2   --> B_1  D_3  S_3  
     e(  8 -  9) =      6.73147  eV     2   --> B_2  D_4  S_4  
     e( 10 - 10) =      7.29932  eV     1   --> A_1  D_1  S_1  

 **************************************************************************

 **************************************************************************

                    xk=(   0.00000,   0.00000,   0.00000  )

     point group T_d (-43m) 
     there are  5 classes
     the character table:

       E     8C3   3C2   6S4   6s_d 
A_1    1.00  1.00  1.00  1.00  1.00
A_2    1.00  1.00  1.00 -1.00 -1.00
E      2.00 -1.00  2.00  0.00  0.00
T_1    3.00  0.00 -1.00  1.00 -1.00
T_2    3.00  0.00 -1.00 -1.00  1.00

     the symmetry operations in each class and the name of the first element:

     E        1
                                                                 
     8C3      5    7    8    6   12    9   10   11
                                                                 
     3C2      2    3    4
                                                                 
     6S4     15   16   20   19   23   24
                                                                 
     6s_d    13   14   17   18   21   22
                                                                 

     Band symmetry, T_d (-43m)  point group:

     e(  1 -  3) =     -8.19551  eV     3   --> T_2  G_15 P_4  
     e(  4 -  5) =     -8.11152  eV     2   --> E    G_12 P_3  
     e(  6 -  6) =     -6.21478  eV     1   --> A_1  G_1  P_1  
     e(  7 -  9) =      6.74051  eV     3   --> T_2  G_15 P_4  
     e( 10 - 10) =      7.20540  eV     1   --> A_1  G_1  P_1  

 **************************************************************************

 **************************************************************************

                    xk=(  -0.01250,   0.01250,   0.01250  )

     point group C_3v (3m)  
     there are  3 classes
     the character table:

       E     2C3   3s_v 
A_1    1.00  1.00  1.00
A_2    1.00  1.00 -1.00
E      2.00 -1.00  0.00

     the symmetry operations in each class and the name of the first element:

     E        1
                                                                 
     2C3      2    3
                                                                 
     3s_v     4    5    6
                                                                 

     Band symmetry, C_3v (3m)   point group:

     e(  1 -  1) =     -8.19567  eV     1   --> A_1  L_1       
     e(  2 -  3) =     -8.19547  eV     2   --> E    L_3       
     e(  4 -  5) =     -8.11152  eV     2   --> E    L_3       
     e(  6 -  6) =     -6.21287  eV     1   --> A_1  L_1       
     e(  7 -  7) =      6.66035  eV     1   --> A_1  L_1       
     e(  8 -  9) =      6.73762  eV     2   --> E    L_3       
     e( 10 - 10) =      7.27747  eV     1   --> A_1  L_1       

 **************************************************************************

 **************************************************************************

                    xk=(  -0.02500,   0.02500,   0.02500  )

     Band symmetry, C_3v (3m)   point group:

     e(  1 -  1) =     -8.19614  eV     1   --> A_1  L_1       
     e(  2 -  3) =     -8.19534  eV     2   --> E    L_3       
     e(  4 -  5) =     -8.11152  eV     2   --> E    L_3       
     e(  6 -  6) =     -6.20714  eV     1   --> A_1  L_1       
     e(  7 -  7) =      6.49036  eV     1   --> A_1  L_1       
     e(  8 -  9) =      6.72902  eV     2   --> E    L_3       
     e( 10 - 10) =      7.42293  eV     1   --> A_1  L_1       

 **************************************************************************

 **************************************************************************

                    xk=(  -0.03750,   0.03750,   0.03750  )

     Band symmetry, C_3v (3m)   point group:

     e(  1 -  1) =     -8.19693  eV     1   --> A_1  L_1       
     e(  2 -  3) =     -8.19514  eV     2   --> E    L_3       
     e(  4 -  5) =     -8.11153  eV     2   --> E    L_3       
     e(  6 -  6) =     -6.19760  eV     1   --> A_1  L_1       
     e(  7 -  7) =      6.29024  eV     1   --> A_1  L_1       
     e(  8 -  9) =      6.71488  eV     2   --> E    L_3       
     e( 10 - 10) =      7.58132  eV     1   --> A_1  L_1       

 **************************************************************************

 **************************************************************************

                    xk=(  -0.05000,   0.05000,   0.05000  )

     Band symmetry, C_3v (3m)   point group:

     e(  1 -  1) =     -8.19803  eV     1   --> A_1  L_1       
     e(  2 -  3) =     -8.19486  eV     2   --> E    L_3       
     e(  4 -  5) =     -8.11155  eV     2   --> E    L_3       
     e(  6 -  6) =     -6.18428  eV     1   --> A_1  L_1       
     e(  7 -  7) =      6.07716  eV     1   --> A_1  L_1       
     e(  8 -  9) =      6.69546  eV     2   --> E    L_3       
     e( 10 - 10) =      7.73436  eV     1   --> A_1  L_1       

 **************************************************************************

 **************************************************************************

                    xk=(  -0.06250,   0.06250,   0.06250  )

     Band symmetry, C_3v (3m)   point group:

     e(  1 -  1) =     -8.19941  eV     1   --> A_1  L_1       
     e(  2 -  3) =     -8.19450  eV     2   --> E    L_3       
     e(  4 -  5) =     -8.11156  eV     2   --> E    L_3       
     e(  6 -  6) =     -6.16719  eV     1   --> A_1  L_1       
     e(  7 -  7) =      5.85689  eV     1   --> A_1  L_1       
     e(  8 -  9) =      6.67116  eV     2   --> E    L_3       
     e( 10 - 10) =      7.87483  eV     1   --> A_1  L_1       

 **************************************************************************

 **************************************************************************

                    xk=(  -0.07500,   0.07500,   0.07500  )

     Band symmetry, C_3v (3m)   point group:

     e(  1 -  1) =     -8.20107  eV     1   --> A_1  L_1       
     e(  2 -  3) =     -8.19407  eV     2   --> E    L_3       
     e(  4 -  5) =     -8.11158  eV     2   --> E    L_3       
     e(  6 -  6) =     -6.14637  eV     1   --> A_1  L_1       
     e(  7 -  7) =      5.63210  eV     1   --> A_1  L_1       
     e(  8 -  9) =      6.64238  eV     2   --> E    L_3       
     e( 10 - 10) =      7.99866  eV     1   --> A_1  L_1       

 **************************************************************************

 **************************************************************************

                    xk=(  -0.08750,   0.08750,   0.08750  )

     Band symmetry, C_3v (3m)   point group:

     e(  1 -  1) =     -8.20300  eV     1   --> A_1  L_1       
     e(  2 -  3) =     -8.19357  eV     2   --> E    L_3       
     e(  4 -  5) =     -8.11160  eV     2   --> E    L_3       
     e(  6 -  6) =     -6.12187  eV     1   --> A_1  L_1       
     e(  7 -  7) =      5.40434  eV     1   --> A_1  L_1       
     e(  8 -  9) =      6.60962  eV     2   --> E    L_3       
     e( 10 - 10) =      8.10320  eV     1   --> A_1  L_1       

 **************************************************************************

 **************************************************************************

                    xk=(  -0.10000,   0.10000,   0.10000  )

     Band symmetry, C_3v (3m)   point group:

     e(  1 -  1) =     -8.20516  eV     1   --> A_1  L_1       
     e(  2 -  3) =     -8.19300  eV     2   --> E    L_3       
     e(  4 -  5) =     -8.11161  eV     2   --> E    L_3       
     e(  6 -  6) =     -6.09373  eV     1   --> A_1  L_1       
     e(  7 -  7) =      5.17469  eV     1   --> A_1  L_1       
     e(  8 -  9) =      6.57338  eV     2   --> E    L_3       
     e( 10 - 10) =      8.18700  eV     1   --> A_1  L_1       

 **************************************************************************

 **************************************************************************

                    xk=(  -0.11250,   0.11250,   0.11250  )

     Band symmetry, C_3v (3m)   point group:

     e(  1 -  1) =     -8.20755  eV     1   --> A_1  L_1       
     e(  2 -  3) =     -8.19238  eV     2   --> E    L_3       
     e(  4 -  5) =     -8.11162  eV     2   --> E    L_3       
     e(  6 -  6) =     -6.06200  eV     1   --> A_1  L_1       
     e(  7 -  7) =      4.94397  eV     1   --> A_1  L_1       
     e(  8 -  9) =      6.53417  eV     2   --> E    L_3       
     e( 10 - 10) =      8.24985  eV     1   --> A_1  L_1       

 **************************************************************************

 **************************************************************************

                    xk=(  -0.12500,   0.12500,   0.12500  )

     Band symmetry, C_3v (3m)   point group:

     e(  1 -  1) =     -8.21013  eV     1   --> A_1  L_1       
     e(  2 -  3) =     -8.19170  eV     2   --> E    L_3       
     e(  4 -  5) =     -8.11163  eV     2   --> E    L_3       
     e(  6 -  6) =     -6.02675  eV     1   --> A_1  L_1       
     e(  7 -  7) =      4.71284  eV     1   --> A_1  L_1       
     e(  8 -  9) =      6.49250  eV     2   --> E    L_3       
     e( 10 - 10) =      8.29271  eV     1   --> A_1  L_1       

 **************************************************************************

 **************************************************************************

                    xk=(  -0.13750,   0.13750,   0.13750  )

     Band symmetry, C_3v (3m)   point group:

     e(  1 -  1) =     -8.21289  eV     1   --> A_1  L_1       
     e(  2 -  3) =     -8.19098  eV     2   --> E    L_3       
     e(  4 -  5) =     -8.11162  eV     2   --> E    L_3       
     e(  6 -  6) =     -5.98805  eV     1   --> A_1  L_1       
     e(  7 -  7) =      4.48189  eV     1   --> A_1  L_1       
     e(  8 -  9) =      6.44886  eV     2   --> E    L_3       
     e( 10 - 10) =      8.31750  eV     1   --> A_1  L_1       

 **************************************************************************

 **************************************************************************

                    xk=(  -0.15000,   0.15000,   0.15000  )

     Band symmetry, C_3v (3m)   point group:

     e(  1 -  1) =     -8.21580  eV     1   --> A_1  L_1       
     e(  2 -  3) =     -8.19021  eV     2   --> E    L_3       
     e(  4 -  5) =     -8.11161  eV     2   --> E    L_3       
     e(  6 -  6) =     -5.94598  eV     1   --> A_1  L_1       
     e(  7 -  7) =      4.25162  eV     1   --> A_1  L_1       
     e(  8 -  9) =      6.40372  eV     2   --> E    L_3       
     e( 10 - 10) =      8.32669  eV     1   --> A_1  L_1       

 **************************************************************************

 **************************************************************************

                    xk=(  -0.16250,   0.16250,   0.16250  )

     Band symmetry, C_3v (3m)   point group:

     e(  1 -  1) =     -8.21884  eV     1   --> A_1  L_1       
     e(  2 -  3) =     -8.18941  eV     2   --> E    L_3       
     e(  4 -  5) =     -8.11158  eV     2   --> E    L_3       
     e(  6 -  6) =     -5.90064  eV     1   --> A_1  L_1       
     e(  7 -  7) =      4.02249  eV     1   --> A_1  L_1       
     e(  8 -  9) =      6.35751  eV     2   --> E    L_3       
     e( 10 - 10) =      8.32295  eV     1   --> A_1  L_1       

 **************************************************************************

 **************************************************************************

                    xk=(  -0.17500,   0.17500,   0.17500  )

     Band symmetry, C_3v (3m)   point group:

     e(  1 -  1) =     -8.22199  eV     1   --> A_1  L_1       
     e(  2 -  3) =     -8.18859  eV     2   --> E    L_3       
     e(  4 -  5) =     -8.11154  eV     2   --> E    L_3       
     e(  6 -  6) =     -5.85211  eV     1   --> A_1  L_1       
     e(  7 -  7) =      3.79492  eV     1   --> A_1  L_1       
     e(  8 -  9) =      6.31063  eV     2   --> E    L_3       
     e( 10 - 10) =      8.30883  eV     1   --> A_1  L_1       

 **************************************************************************

 **************************************************************************

                    xk=(  -0.18750,   0.18750,   0.18750  )

     Band symmetry, C_3v (3m)   point group:

     e(  1 -  1) =     -8.22521  eV     1   --> A_1  L_1       
     e(  2 -  3) =     -8.18774  eV     2   --> E    L_3       
     e(  4 -  5) =     -8.11148  eV     2   --> E    L_3       
     e(  6 -  6) =     -5.80050  eV     1   --> A_1  L_1       
     e(  7 -  7) =      3.56933  eV     1   --> A_1  L_1       
     e(  8 -  9) =      6.26346  eV     2   --> E    L_3       
     e( 10 - 10) =      8.28665  eV     1   --> A_1  L_1       

 **************************************************************************

 **************************************************************************

                    xk=(  -0.20000,   0.20000,   0.20000  )

     Band symmetry, C_3v (3m)   point group:

     e(  1 -  1) =     -8.22850  eV     1   --> A_1  L_1       
     e(  2 -  3) =     -8.18689  eV     2   --> E    L_3       
     e(  4 -  5) =     -8.11141  eV     2   --> E    L_3       
     e(  6 -  6) =     -5.74595  eV     1   --> A_1  L_1       
     e(  7 -  7) =      3.34608  eV     1   --> A_1  L_1       
     e(  8 -  9) =      6.21631  eV     2   --> E    L_3       
     e( 10 - 10) =      8.25839  eV     1   --> A_1  L_1       

 **************************************************************************

 **************************************************************************

                    xk=(  -0.21250,   0.21250,   0.21250  )

     Band symmetry, C_3v (3m)   point group:

     e(  1 -  1) =     -8.23182  eV     1   --> A_1  L_1       
     e(  2 -  3) =     -8.18602  eV     2   --> E    L_3       
     e(  4 -  5) =     -8.11131  eV     2   --> E    L_3       
     e(  6 -  6) =     -5.68859  eV     1   --> A_1  L_1       
     e(  7 -  7) =      3.12556  eV     1   --> A_1  L_1       
     e(  8 -  9) =      6.16950  eV     2   --> E    L_3       
     e( 10 - 10) =      8.22570  eV     1   --> A_1  L_1       

 **************************************************************************

 **************************************************************************

                    xk=(  -0.22500,   0.22500,   0.22500  )

     Band symmetry, C_3v (3m)   point group:

     e(  1 -  1) =     -8.23515  eV     1   --> A_1  L_1       
     e(  2 -  3) =     -8.18516  eV     2   --> E    L_3       
     e(  4 -  5) =     -8.11119  eV     2   --> E    L_3       
     e(  6 -  6) =     -5.62857  eV     1   --> A_1  L_1       
     e(  7 -  7) =      2.90813  eV     1   --> A_1  L_1       
     e(  8 -  9) =      6.12329  eV     2   --> E    L_3       
     e( 10 - 10) =      8.18992  eV     1   --> A_1  L_1       

 **************************************************************************

 **************************************************************************

                    xk=(  -0.23750,   0.23750,   0.23750  )

     Band symmetry, C_3v (3m)   point group:

     e(  1 -  1) =     -8.23848  eV     1   --> A_1  L_1       
     e(  2 -  3) =     -8.18431  eV     2   --> E    L_3       
     e(  4 -  5) =     -8.11105  eV     2   --> E    L_3       
     e(  6 -  6) =     -5.56607  eV     1   --> A_1  L_1       
     e(  7 -  7) =      2.69414  eV     1   --> A_1  L_1       
     e(  8 -  9) =      6.07794  eV     2   --> E    L_3       
     e( 10 - 10) =      8.15217  eV     1   --> A_1  L_1       

 **************************************************************************

 **************************************************************************

                    xk=(  -0.25000,   0.25000,   0.25000  )

     Band symmetry, C_3v (3m)   point group:

     e(  1 -  1) =     -8.24178  eV     1   --> A_1  L_1       
     e(  2 -  3) =     -8.18348  eV     2   --> E    L_3       
     e(  4 -  5) =     -8.11089  eV     2   --> E    L_3       
     e(  6 -  6) =     -5.50128  eV     1   --> A_1  L_1       
     e(  7 -  7) =      2.48397  eV     1   --> A_1  L_1       
     e(  8 -  9) =      6.03365  eV     2   --> E    L_3       
     e( 10 - 10) =      8.11333  eV     1   --> A_1  L_1       

 **************************************************************************

 **************************************************************************

                    xk=(  -0.26250,   0.26250,   0.26250  )

     Band symmetry, C_3v (3m)   point group:

     e(  1 -  1) =     -8.24504  eV     1   --> A_1  L_1       
     e(  2 -  3) =     -8.18266  eV     2   --> E    L_3       
     e(  4 -  5) =     -8.11071  eV     2   --> E    L_3       
     e(  6 -  6) =     -5.43441  eV     1   --> A_1  L_1       
     e(  7 -  7) =      2.27799  eV     1   --> A_1  L_1       
     e(  8 -  9) =      5.99062  eV     2   --> E    L_3       
     e( 10 - 10) =      8.07411  eV     1   --> A_1  L_1       

 **************************************************************************

 **************************************************************************

                    xk=(  -0.27500,   0.27500,   0.27500  )

     Band symmetry, C_3v (3m)   point group:

     e(  1 -  1) =     -8.24823  eV     1   --> A_1  L_1       
     e(  2 -  3) =     -8.18187  eV     2   --> E    L_3       
     e(  4 -  5) =     -8.11050  eV     2   --> E    L_3       
     e(  6 -  6) =     -5.36572  eV     1   --> A_1  L_1       
     e(  7 -  7) =      2.07660  eV     1   --> A_1  L_1       
     e(  8 -  9) =      5.94902  eV     2   --> E    L_3       
     e( 10 - 10) =      8.03509  eV     1   --> A_1  L_1       

 **************************************************************************

 **************************************************************************

                    xk=(  -0.28750,   0.28750,   0.28750  )

     Band symmetry, C_3v (3m)   point group:

     e(  1 -  1) =     -8.25135  eV     1   --> A_1  L_1       
     e(  2 -  3) =     -8.18112  eV     2   --> E    L_3       
     e(  4 -  5) =     -8.11028  eV     2   --> E    L_3       
     e(  6 -  6) =     -5.29548  eV     1   --> A_1  L_1       
     e(  7 -  7) =      1.88020  eV     1   --> A_1  L_1       
     e(  8 -  9) =      5.90901  eV     2   --> E    L_3       
     e( 10 - 10) =      7.99674  eV     1   --> A_1  L_1       

 **************************************************************************

 **************************************************************************

                    xk=(  -0.30000,   0.30000,   0.30000  )

     Band symmetry, C_3v (3m)   point group:

     e(  1 -  1) =     -8.25437  eV     1   --> A_1  L_1       
     e(  2 -  3) =     -8.18040  eV     2   --> E    L_3       
     e(  4 -  5) =     -8.11004  eV     2   --> E    L_3       
     e(  6 -  6) =     -5.22403  eV     1   --> A_1  L_1       
     e(  7 -  7) =      1.68923  eV     1   --> A_1  L_1       
     e(  8 -  9) =      5.87071  eV     2   --> E    L_3       
     e( 10 - 10) =      7.95943  eV     1   --> A_1  L_1       

 **************************************************************************

 **************************************************************************

                    xk=(  -0.31250,   0.31250,   0.31250  )

     Band symmetry, C_3v (3m)   point group:

     e(  1 -  1) =     -8.25728  eV     1   --> A_1  L_1       
     e(  2 -  3) =     -8.17972  eV     2   --> E    L_3       
     e(  4 -  5) =     -8.10978  eV     2   --> E    L_3       
     e(  6 -  6) =     -5.15171  eV     1   --> A_1  L_1       
     e(  7 -  7) =      1.50417  eV     1   --> A_1  L_1       
     e(  8 -  9) =      5.83426  eV     2   --> E    L_3       
     e( 10 - 10) =      7.92346  eV     1   --> A_1  L_1       

 **************************************************************************

 **************************************************************************

                    xk=(  -0.32500,   0.32500,   0.32500  )

     Band symmetry, C_3v (3m)   point group:

     e(  1 -  1) =     -8.26007  eV     1   --> A_1  L_1       
     e(  2 -  3) =     -8.17908  eV     2   --> E    L_3       
     e(  4 -  5) =     -8.10951  eV     2   --> E    L_3       
     e(  6 -  6) =     -5.07894  eV     1   --> A_1  L_1       
     e(  7 -  7) =      1.32551  eV     1   --> A_1  L_1       
     e(  8 -  9) =      5.79976  eV     2   --> E    L_3       
     e( 10 - 10) =      7.88910  eV     1   --> A_1  L_1       

 **************************************************************************

 **************************************************************************

                    xk=(  -0.33750,   0.33750,   0.33750  )

     Band symmetry, C_3v (3m)   point group:

     e(  1 -  1) =     -8.26272  eV     1   --> A_1  L_1       
     e(  2 -  3) =     -8.17849  eV     2   --> E    L_3       
     e(  4 -  5) =     -8.10922  eV     2   --> E    L_3       
     e(  6 -  6) =     -5.00619  eV     1   --> A_1  L_1       
     e(  7 -  7) =      1.15383  eV     1   --> A_1  L_1       
     e(  8 -  9) =      5.76729  eV     2   --> E    L_3       
     e( 10 - 10) =      7.85654  eV     1   --> A_1  L_1       

 **************************************************************************

 **************************************************************************

                    xk=(  -0.35000,   0.35000,   0.35000  )

     Band symmetry, C_3v (3m)   point group:

     e(  1 -  1) =     -8.26522  eV     1   --> A_1  L_1       
     e(  2 -  3) =     -8.17794  eV     2   --> E    L_3       
     e(  4 -  5) =     -8.10894  eV     2   --> E    L_3       
     e(  6 -  6) =     -4.93398  eV     1   --> A_1  L_1       
     e(  7 -  7) =      0.98972  eV     1   --> A_1  L_1       
     e(  8 -  9) =      5.73695  eV     2   --> E    L_3       
     e( 10 - 10) =      7.82594  eV     1   --> A_1  L_1       

 **************************************************************************

 **************************************************************************

                    xk=(  -0.36250,   0.36250,   0.36250  )

     Band symmetry, C_3v (3m)   point group:

     e(  1 -  1) =     -8.26756  eV     1   --> A_1  L_1       
     e(  2 -  3) =     -8.17743  eV     2   --> E    L_3       
     e(  4 -  5) =     -8.10865  eV     2   --> E    L_3       
     e(  6 -  6) =     -4.86292  eV     1   --> A_1  L_1       
     e(  7 -  7) =      0.83387  eV     1   --> A_1  L_1       
     e(  8 -  9) =      5.70880  eV     2   --> E    L_3       
     e( 10 - 10) =      7.79743  eV     1   --> A_1  L_1       

 **************************************************************************

 **************************************************************************

                    xk=(  -0.37500,   0.37500,   0.37500  )

     Band symmetry, C_3v (3m)   point group:

     e(  1 -  1) =     -8.26973  eV     1   --> A_1  L_1       
     e(  2 -  3) =     -8.17698  eV     2   --> E    L_3       
     e(  4 -  5) =     -8.10837  eV     2   --> E    L_3       
     e(  6 -  6) =     -4.79368  eV     1   --> A_1  L_1       
     e(  7 -  7) =      0.68700  eV     1   --> A_1  L_1       
     e(  8 -  9) =      5.68292  eV     2   --> E    L_3       
     e( 10 - 10) =      7.77114  eV     1   --> A_1  L_1       

 **************************************************************************

 **************************************************************************

                    xk=(  -0.38750,   0.38750,   0.38750  )

     Band symmetry, C_3v (3m)   point group:

     e(  1 -  1) =     -8.27172  eV     1   --> A_1  L_1       
     e(  2 -  3) =     -8.17657  eV     2   --> E    L_3       
     e(  4 -  5) =     -8.10810  eV     2   --> E    L_3       
     e(  6 -  6) =     -4.72700  eV     1   --> A_1  L_1       
     e(  7 -  7) =      0.54991  eV     1   --> A_1  L_1       
     e(  8 -  9) =      5.65934  eV     2   --> E    L_3       
     e( 10 - 10) =      7.74714  eV     1   --> A_1  L_1       

 **************************************************************************

 **************************************************************************

                    xk=(  -0.40000,   0.40000,   0.40000  )

     Band symmetry, C_3v (3m)   point group:

     e(  1 -  1) =     -8.27353  eV     1   --> A_1  L_1       
     e(  2 -  3) =     -8.17621  eV     2   --> E    L_3       
     e(  4 -  5) =     -8.10784  eV     2   --> E    L_3       
     e(  6 -  6) =     -4.66369  eV     1   --> A_1  L_1       
     e(  7 -  7) =      0.42347  eV     1   --> A_1  L_1       
     e(  8 -  9) =      5.63814  eV     2   --> E    L_3       
     e( 10 - 10) =      7.72552  eV     1   --> A_1  L_1       

 **************************************************************************

 **************************************************************************

                    xk=(  -0.41250,   0.41250,   0.41250  )

     Band symmetry, C_3v (3m)   point group:

     e(  1 -  1) =     -8.27514  eV     1   --> A_1  L_1       
     e(  2 -  3) =     -8.17589  eV     2   --> E    L_3       
     e(  4 -  5) =     -8.10759  eV     2   --> E    L_3       
     e(  6 -  6) =     -4.60463  eV     1   --> A_1  L_1       
     e(  7 -  7) =      0.30862  eV     1   --> A_1  L_1       
     e(  8 -  9) =      5.61933  eV     2   --> E    L_3       
     e( 10 - 10) =      7.70632  eV     1   --> A_1  L_1       

 **************************************************************************

 **************************************************************************

                    xk=(  -0.42500,   0.42500,   0.42500  )

     Band symmetry, C_3v (3m)   point group:

     e(  1 -  1) =     -8.27655  eV     1   --> A_1  L_1       
     e(  2 -  3) =     -8.17562  eV     2   --> E    L_3       
     e(  4 -  5) =     -8.10737  eV     2   --> E    L_3       
     e(  6 -  6) =     -4.55076  eV     1   --> A_1  L_1       
     e(  7 -  7) =      0.20631  eV     1   --> A_1  L_1       
     e(  8 -  9) =      5.60297  eV     2   --> E    L_3       
     e( 10 - 10) =      7.68960  eV     1   --> A_1  L_1       

 **************************************************************************

 **************************************************************************

                    xk=(  -0.43750,   0.43750,   0.43750  )

     Band symmetry, C_3v (3m)   point group:

     e(  1 -  1) =     -8.27775  eV     1   --> A_1  L_1       
     e(  2 -  3) =     -8.17539  eV     2   --> E    L_3       
     e(  4 -  5) =     -8.10718  eV     2   --> E    L_3       
     e(  6 -  6) =     -4.50303  eV     1   --> A_1  L_1       
     e(  7 -  7) =      0.11753  eV     1   --> A_1  L_1       
     e(  8 -  9) =      5.58907  eV     2   --> E    L_3       
     e( 10 - 10) =      7.67539  eV     1   --> A_1  L_1       

 **************************************************************************

 **************************************************************************

                    xk=(  -0.45000,   0.45000,   0.45000  )

     Band symmetry, C_3v (3m)   point group:

     e(  1 -  1) =     -8.27874  eV     1   --> A_1  L_1       
     e(  2 -  3) =     -8.17521  eV     2   --> E    L_3       
     e(  4 -  5) =     -8.10702  eV     2   --> E    L_3       
     e(  6 -  6) =     -4.46238  eV     1   --> A_1  L_1       
     e(  7 -  7) =      0.04326  eV     1   --> A_1  L_1       
     e(  8 -  9) =      5.57767  eV     2   --> E    L_3       
     e( 10 - 10) =      7.66373  eV     1   --> A_1  L_1       

 **************************************************************************

 **************************************************************************

                    xk=(  -0.46250,   0.46250,   0.46250  )

     Band symmetry, C_3v (3m)   point group:

     e(  1 -  1) =     -8.27951  eV     1   --> A_1  L_1       
     e(  2 -  3) =     -8.17506  eV     2   --> E    L_3       
     e(  4 -  5) =     -8.10688  eV     2   --> E    L_3       
     e(  6 -  6) =     -4.42969  eV     1   --> A_1  L_1       
     e(  7 -  7) =     -0.01560  eV     1   --> A_1  L_1       
     e(  8 -  9) =      5.56879  eV     2   --> E    L_3       
     e( 10 - 10) =      7.65464  eV     1   --> A_1  L_1       

 **************************************************************************

 **************************************************************************

                    xk=(  -0.47500,   0.47500,   0.47500  )

     Band symmetry, C_3v (3m)   point group:

     e(  1 -  1) =     -8.28007  eV     1   --> A_1  L_1       
     e(  2 -  3) =     -8.17496  eV     2   --> E    L_3       
     e(  4 -  5) =     -8.10679  eV     2   --> E    L_3       
     e(  6 -  6) =     -4.40573  eV     1   --> A_1  L_1       
     e(  7 -  7) =     -0.05827  eV     1   --> A_1  L_1       
     e(  8 -  9) =      5.56243  eV     2   --> E    L_3       
     e( 10 - 10) =      7.64814  eV     1   --> A_1  L_1       

 **************************************************************************

 **************************************************************************

                    xk=(  -0.48750,   0.48750,   0.48750  )

     Band symmetry, C_3v (3m)   point group:

     e(  1 -  1) =     -8.28040  eV     1   --> A_1  L_1       
     e(  2 -  3) =     -8.17490  eV     2   --> E    L_3       
     e(  4 -  5) =     -8.10673  eV     2   --> E    L_3       
     e(  6 -  6) =     -4.39109  eV     1   --> A_1  L_1       
     e(  7 -  7) =     -0.08413  eV     1   --> A_1  L_1       
     e(  8 -  9) =      5.55861  eV     2   --> E    L_3       
     e( 10 - 10) =      7.64423  eV     1   --> A_1  L_1       

 **************************************************************************

 **************************************************************************

                    xk=(  -0.50000,   0.50000,   0.50000  )

     Band symmetry, C_3v (3m)   point group:

     e(  1 -  1) =     -8.28051  eV     1   --> A_1  L_1       
     e(  2 -  3) =     -8.17488  eV     2   --> E    L_3       
     e(  4 -  5) =     -8.10671  eV     2   --> E    L_3       
     e(  6 -  6) =     -4.38617  eV     1   --> A_1  L_1       
     e(  7 -  7) =     -0.09279  eV     1   --> A_1  L_1       
     e(  8 -  9) =      5.55734  eV     2   --> E    L_3       
     e( 10 - 10) =      7.64292  eV     1   --> A_1  L_1       

 **************************************************************************

 **************************************************************************

                    xk=(  -0.50000,   0.48750,   0.51250  )

     point group C_1 (1)    
     there are  1 classes
     the character table:

       E    
A      1.00

     the symmetry operations in each class and the name of the first element:

     E        1
                                                                 

     Band symmetry, C_1 (1)     point group:

     e(  1 -  1) =     -8.28053  eV     1   --> A              
     e(  2 -  3) =     -8.17486  eV     2   -->   2 A              
     e(  4 -  5) =     -8.10674  eV     2   -->   2 A              
     e(  6 -  6) =     -4.38520  eV     1   --> A              
     e(  7 -  7) =     -0.09214  eV     1   --> A              
     e(  8 -  8) =      5.54214  eV     1   --> A              
     e(  9 -  9) =      5.55515  eV     1   --> A              
     e( 10 - 10) =      7.65815  eV     1   --> A              

 **************************************************************************

 **************************************************************************

                    xk=(  -0.50000,   0.47500,   0.52500  )

     Band symmetry, C_1 (1)     point group:

     e(  1 -  1) =     -8.28059  eV     1   --> A              
     e(  2 -  3) =     -8.17481  eV     2   -->   2 A              
     e(  4 -  4) =     -8.10683  eV     1   --> A              
     e(  5 -  5) =     -8.10672  eV     1   --> A              
     e(  6 -  6) =     -4.38228  eV     1   --> A              
     e(  7 -  7) =     -0.09020  eV     1   --> A              
     e(  8 -  8) =      5.49795  eV     1   --> A              
     e(  9 -  9) =      5.54857  eV     1   --> A              
     e( 10 - 10) =      7.70242  eV     1   --> A              

 **************************************************************************

 **************************************************************************

                    xk=(  -0.50000,   0.46250,   0.53750  )

     Band symmetry, C_1 (1)     point group:

     e(  1 -  1) =     -8.28069  eV     1   --> A              
     e(  2 -  2) =     -8.17473  eV     1   --> A              
     e(  3 -  3) =     -8.17452  eV     1   --> A              
     e(  4 -  4) =     -8.10698  eV     1   --> A              
     e(  5 -  5) =     -8.10672  eV     1   --> A              
     e(  6 -  6) =     -4.37742  eV     1   --> A              
     e(  7 -  7) =     -0.08699  eV     1   --> A              
     e(  8 -  8) =      5.42844  eV     1   --> A              
     e(  9 -  9) =      5.53761  eV     1   --> A              
     e( 10 - 10) =      7.77194  eV     1   --> A              

 **************************************************************************

 **************************************************************************

                    xk=(  -0.50000,   0.45000,   0.55000  )

     Band symmetry, C_1 (1)     point group:

     e(  1 -  1) =     -8.28084  eV     1   --> A              
     e(  2 -  2) =     -8.17461  eV     1   --> A              
     e(  3 -  3) =     -8.17424  eV     1   --> A              
     e(  4 -  4) =     -8.10718  eV     1   --> A              
     e(  5 -  5) =     -8.10673  eV     1   --> A              
     e(  6 -  6) =     -4.37064  eV     1   --> A              
     e(  7 -  7) =     -0.08253  eV     1   --> A              
     e(  8 -  8) =      5.33841  eV     1   --> A              
     e(  9 -  9) =      5.52227  eV     1   --> A              
     e( 10 - 10) =      7.86181  eV     1   --> A              

 **************************************************************************

 **************************************************************************

                    xk=(  -0.50000,   0.43750,   0.56250  )

     Band symmetry, C_1 (1)     point group:

     e(  1 -  1) =     -8.28102  eV     1   --> A              
     e(  2 -  2) =     -8.17446  eV     1   --> A              
     e(  3 -  3) =     -8.17388  eV     1   --> A              
     e(  4 -  4) =     -8.10744  eV     1   --> A              
     e(  5 -  5) =     -8.10674  eV     1   --> A              
     e(  6 -  6) =     -4.36194  eV     1   --> A              
     e(  7 -  7) =     -0.07688  eV     1   --> A              
     e(  8 -  8) =      5.23267  eV     1   --> A              
     e(  9 -  9) =      5.50254  eV     1   --> A              
     e( 10 - 10) =      7.96705  eV     1   --> A              

 **************************************************************************

 **************************************************************************

                    xk=(  -0.50000,   0.42500,   0.57500  )

     Band symmetry, C_1 (1)     point group:

     e(  1 -  1) =     -8.28124  eV     1   --> A              
     e(  2 -  2) =     -8.17428  eV     1   --> A              
     e(  3 -  3) =     -8.17344  eV     1   --> A              
     e(  4 -  4) =     -8.10775  eV     1   --> A              
     e(  5 -  5) =     -8.10675  eV     1   --> A              
     e(  6 -  6) =     -4.35136  eV     1   --> A              
     e(  7 -  7) =     -0.07008  eV     1   --> A              
     e(  8 -  8) =      5.11545  eV     1   --> A              
     e(  9 -  9) =      5.47845  eV     1   --> A              
     e( 10 - 10) =      8.08321  eV     1   --> A              

 **************************************************************************

 **************************************************************************

                    xk=(  -0.50000,   0.41250,   0.58750  )

     Band symmetry, C_1 (1)     point group:

     e(  1 -  1) =     -8.28151  eV     1   --> A              
     e(  2 -  2) =     -8.17407  eV     1   --> A              
     e(  3 -  3) =     -8.17293  eV     1   --> A              
     e(  4 -  4) =     -8.10812  eV     1   --> A              
     e(  5 -  5) =     -8.10676  eV     1   --> A              
     e(  6 -  6) =     -4.33892  eV     1   --> A              
     e(  7 -  7) =     -0.06222  eV     1   --> A              
     e(  8 -  8) =      4.99021  eV     1   --> A              
     e(  9 -  9) =      5.45000  eV     1   --> A              
     e( 10 - 10) =      8.20662  eV     1   --> A              

 **************************************************************************

 **************************************************************************

                    xk=(  -0.50000,   0.40000,   0.60000  )

     Band symmetry, C_1 (1)     point group:

     e(  1 -  1) =     -8.28183  eV     1   --> A              
     e(  2 -  2) =     -8.17383  eV     1   --> A              
     e(  3 -  3) =     -8.17233  eV     1   --> A              
     e(  4 -  4) =     -8.10853  eV     1   --> A              
     e(  5 -  5) =     -8.10678  eV     1   --> A              
     e(  6 -  6) =     -4.32465  eV     1   --> A              
     e(  7 -  7) =     -0.05337  eV     1   --> A              
     e(  8 -  8) =      4.85970  eV     1   --> A              
     e(  9 -  9) =      5.41722  eV     1   --> A              
     e( 10 - 10) =      8.33435  eV     1   --> A              

 **************************************************************************

 **************************************************************************

                    xk=(  -0.50000,   0.38750,   0.61250  )

     Band symmetry, C_1 (1)     point group:

     e(  1 -  1) =     -8.28219  eV     1   --> A              
     e(  2 -  2) =     -8.17356  eV     1   --> A              
     e(  3 -  3) =     -8.17167  eV     1   --> A              
     e(  4 -  4) =     -8.10899  eV     1   --> A              
     e(  5 -  5) =     -8.10679  eV     1   --> A              
     e(  6 -  6) =     -4.30859  eV     1   --> A              
     e(  7 -  7) =     -0.04363  eV     1   --> A              
     e(  8 -  8) =      4.72606  eV     1   --> A              
     e(  9 -  9) =      5.38016  eV     1   --> A              
     e( 10 - 10) =      8.46407  eV     1   --> A              

 **************************************************************************

 **************************************************************************

                    xk=(  -0.50000,   0.37500,   0.62500  )

     Band symmetry, C_1 (1)     point group:

     e(  1 -  1) =     -8.28259  eV     1   --> A              
     e(  2 -  2) =     -8.17326  eV     1   --> A              
     e(  3 -  3) =     -8.17093  eV     1   --> A              
     e(  4 -  4) =     -8.10949  eV     1   --> A              
     e(  5 -  5) =     -8.10681  eV     1   --> A              
     e(  6 -  6) =     -4.29078  eV     1   --> A              
     e(  7 -  7) =     -0.03314  eV     1   --> A              
     e(  8 -  8) =      4.59100  eV     1   --> A              
     e(  9 -  9) =      5.33887  eV     1   --> A              
     e( 10 - 10) =      8.59397  eV     1   --> A              

 **************************************************************************

 **************************************************************************

                    xk=(  -0.50000,   0.36250,   0.63750  )

     Band symmetry, C_1 (1)     point group:

     e(  1 -  1) =     -8.28304  eV     1   --> A              
     e(  2 -  2) =     -8.17294  eV     1   --> A              
     e(  3 -  3) =     -8.17012  eV     1   --> A              
     e(  4 -  4) =     -8.11003  eV     1   --> A              
     e(  5 -  5) =     -8.10683  eV     1   --> A              
     e(  6 -  6) =     -4.27129  eV     1   --> A              
     e(  7 -  7) =     -0.02202  eV     1   --> A              
     e(  8 -  8) =      4.45589  eV     1   --> A              
     e(  9 -  9) =      5.29343  eV     1   --> A              
     e( 10 - 10) =      8.72267  eV     1   --> A              

 **************************************************************************

 **************************************************************************

                    xk=(  -0.50000,   0.35000,   0.65000  )

     Band symmetry, C_1 (1)     point group:

     e(  1 -  1) =     -8.28353  eV     1   --> A              
[...]
     e( 10 - 10) =      9.43300  eV     1   --> A'             

 **************************************************************************

 **************************************************************************

                    xk=(  -0.37500,   0.00000,   0.37500  )

     Band symmetry, C_s (m)     point group:

     e(  1 -  1) =     -8.25671  eV     1   --> A'             
     e(  2 -  2) =     -8.17857  eV     1   --> A''            
     e(  3 -  3) =     -8.17612  eV     1   --> A'             
     e(  4 -  4) =     -8.11458  eV     1   --> A''            
     e(  5 -  5) =     -8.10882  eV     1   --> A'             
     e(  6 -  6) =     -5.17143  eV     1   --> A'             
     e(  7 -  7) =      2.06555  eV     1   --> A'             
     e(  8 -  8) =      4.18231  eV     1   --> A'             
     e(  9 -  9) =      6.03273  eV     1   --> A''            
     e( 10 - 10) =      9.40110  eV     1   --> A'             

 **************************************************************************

 **************************************************************************

                    xk=(  -0.35625,   0.00000,   0.35625  )

     Band symmetry, C_s (m)     point group:

     e(  1 -  1) =     -8.25307  eV     1   --> A'             
     e(  2 -  2) =     -8.18002  eV     1   --> A''            
     e(  3 -  3) =     -8.17710  eV     1   --> A'             
     e(  4 -  4) =     -8.11459  eV     1   --> A''            
     e(  5 -  5) =     -8.10885  eV     1   --> A'             
     e(  6 -  6) =     -5.26378  eV     1   --> A'             
     e(  7 -  7) =      2.26379  eV     1   --> A'             
     e(  8 -  8) =      4.34522  eV     1   --> A'             
     e(  9 -  9) =      6.10685  eV     1   --> A''            
     e( 10 - 10) =      9.36051  eV     1   --> A'             

 **************************************************************************

 **************************************************************************

                    xk=(  -0.33750,   0.00000,   0.33750  )

     Band symmetry, C_s (m)     point group:

     e(  1 -  1) =     -8.24930  eV     1   --> A'             
     e(  2 -  2) =     -8.18143  eV     1   --> A''            
     e(  3 -  3) =     -8.17814  eV     1   --> A'             
     e(  4 -  4) =     -8.11454  eV     1   --> A''            
     e(  5 -  5) =     -8.10893  eV     1   --> A'             
     e(  6 -  6) =     -5.35338  eV     1   --> A'             
     e(  7 -  7) =      2.46936  eV     1   --> A'             
     e(  8 -  8) =      4.51154  eV     1   --> A'             
     e(  9 -  9) =      6.17727  eV     1   --> A''            
     e( 10 - 10) =      9.31238  eV     1   --> A'             

 **************************************************************************

 **************************************************************************

                    xk=(  -0.31875,   0.00000,   0.31875  )

     Band symmetry, C_s (m)     point group:

     e(  1 -  1) =     -8.24541  eV     1   --> A'             
     e(  2 -  2) =     -8.18279  eV     1   --> A''            
     e(  3 -  3) =     -8.17925  eV     1   --> A'             
     e(  4 -  4) =     -8.11445  eV     1   --> A''            
     e(  5 -  5) =     -8.10906  eV     1   --> A'             
     e(  6 -  6) =     -5.43987  eV     1   --> A'             
     e(  7 -  7) =      2.68195  eV     1   --> A'             
     e(  8 -  8) =      4.68049  eV     1   --> A'             
     e(  9 -  9) =      6.24371  eV     1   --> A''            
     e( 10 - 10) =      9.25771  eV     1   --> A'             

 **************************************************************************

 **************************************************************************

                    xk=(  -0.30000,   0.00000,   0.30000  )

     Band symmetry, C_s (m)     point group:

     e(  1 -  1) =     -8.24143  eV     1   --> A'             
     e(  2 -  2) =     -8.18412  eV     1   --> A''            
     e(  3 -  3) =     -8.18041  eV     1   --> A'             
     e(  4 -  4) =     -8.11432  eV     1   --> A''            
     e(  5 -  5) =     -8.10922  eV     1   --> A'             
     e(  6 -  6) =     -5.52293  eV     1   --> A'             
     e(  7 -  7) =      2.90127  eV     1   --> A'             
     e(  8 -  8) =      4.85121  eV     1   --> A'             
     e(  9 -  9) =      6.30594  eV     1   --> A''            
     e( 10 - 10) =      9.19734  eV     1   --> A'             

 **************************************************************************

 **************************************************************************

                    xk=(  -0.28125,   0.00000,   0.28125  )

     Band symmetry, C_s (m)     point group:

     e(  1 -  1) =     -8.23738  eV     1   --> A'             
     e(  2 -  2) =     -8.18539  eV     1   --> A''            
     e(  3 -  3) =     -8.18163  eV     1   --> A'             
     e(  4 -  4) =     -8.11416  eV     1   --> A''            
     e(  5 -  5) =     -8.10941  eV     1   --> A'             
     e(  6 -  6) =     -5.60226  eV     1   --> A'             
     e(  7 -  7) =      3.12700  eV     1   --> A'             
     e(  8 -  8) =      5.02276  eV     1   --> A'             
     e(  9 -  9) =      6.36379  eV     1   --> A''            
     e( 10 - 10) =      9.13182  eV     1   --> A'             

 **************************************************************************

 **************************************************************************

                    xk=(  -0.26250,   0.00000,   0.26250  )

     Band symmetry, C_s (m)     point group:

     e(  1 -  1) =     -8.23330  eV     1   --> A'             
     e(  2 -  2) =     -8.18660  eV     1   --> A''            
     e(  3 -  3) =     -8.18289  eV     1   --> A'             
     e(  4 -  4) =     -8.11396  eV     1   --> A''            
     e(  5 -  5) =     -8.10961  eV     1   --> A'             
     e(  6 -  6) =     -5.67760  eV     1   --> A'             
     e(  7 -  7) =      3.35882  eV     1   --> A'             
     e(  8 -  8) =      5.19410  eV     1   --> A'             
     e(  9 -  9) =      6.41715  eV     1   --> A''            
     e( 10 - 10) =      9.06140  eV     1   --> A'             

 **************************************************************************

 **************************************************************************

                    xk=(  -0.24375,   0.00000,   0.24375  )

     Band symmetry, C_s (m)     point group:

     e(  1 -  1) =     -8.22921  eV     1   --> A'             
     e(  2 -  2) =     -8.18775  eV     1   --> A''            
     e(  3 -  3) =     -8.18418  eV     1   --> A'             
     e(  4 -  4) =     -8.11375  eV     1   --> A''            
     e(  5 -  5) =     -8.10982  eV     1   --> A'             
     e(  6 -  6) =     -5.74871  eV     1   --> A'             
     e(  7 -  7) =      3.59638  eV     1   --> A'             
     e(  8 -  8) =      5.36407  eV     1   --> A'             
     e(  9 -  9) =      6.46600  eV     1   --> A''            
     e( 10 - 10) =      8.98598  eV     1   --> A'             

 **************************************************************************

 **************************************************************************

                    xk=(  -0.22500,   0.00000,   0.22500  )

     Band symmetry, C_s (m)     point group:

     e(  1 -  1) =     -8.22516  eV     1   --> A'             
     e(  2 -  2) =     -8.18884  eV     1   --> A''            
     e(  3 -  3) =     -8.18548  eV     1   --> A'             
     e(  4 -  4) =     -8.11352  eV     1   --> A''            
     e(  5 -  5) =     -8.11004  eV     1   --> A'             
     e(  6 -  6) =     -5.81537  eV     1   --> A'             
     e(  7 -  7) =      3.83930  eV     1   --> A'             
     e(  8 -  8) =      5.53138  eV     1   --> A'             
     e(  9 -  9) =      6.51033  eV     1   --> A''            
     e( 10 - 10) =      8.90508  eV     1   --> A'             

 **************************************************************************

 **************************************************************************

                    xk=(  -0.20625,   0.00000,   0.20625  )

     Band symmetry, C_s (m)     point group:

     e(  1 -  1) =     -8.22119  eV     1   --> A'             
     e(  2 -  2) =     -8.18986  eV     1   --> A''            
     e(  3 -  3) =     -8.18678  eV     1   --> A'             
     e(  4 -  4) =     -8.11328  eV     1   --> A''            
     e(  5 -  5) =     -8.11025  eV     1   --> A'             
     e(  6 -  6) =     -5.87740  eV     1   --> A'             
     e(  7 -  7) =      4.08715  eV     1   --> A'             
     e(  8 -  8) =      5.69461  eV     1   --> A'             
     e(  9 -  9) =      6.55021  eV     1   --> A''            
     e( 10 - 10) =      8.81781  eV     1   --> A'             

 **************************************************************************

 **************************************************************************

                    xk=(  -0.18750,   0.00000,   0.18750  )

     Band symmetry, C_s (m)     point group:

     e(  1 -  1) =     -8.21735  eV     1   --> A'             
     e(  2 -  2) =     -8.19080  eV     1   --> A''            
     e(  3 -  3) =     -8.18805  eV     1   --> A'             
     e(  4 -  4) =     -8.11303  eV     1   --> A''            
     e(  5 -  5) =     -8.11045  eV     1   --> A'             
     e(  6 -  6) =     -5.93461  eV     1   --> A'             
     e(  7 -  7) =      4.33947  eV     1   --> A'             
     e(  8 -  8) =      5.85220  eV     1   --> A'             
     e(  9 -  9) =      6.58577  eV     1   --> A''            
     e( 10 - 10) =      8.72284  eV     1   --> A'             

 **************************************************************************

 **************************************************************************

                    xk=(  -0.16875,   0.00000,   0.16875  )

     Band symmetry, C_s (m)     point group:

     e(  1 -  1) =     -8.21367  eV     1   --> A'             
     e(  2 -  2) =     -8.19167  eV     1   --> A''            
     e(  3 -  3) =     -8.18929  eV     1   --> A'             
     e(  4 -  4) =     -8.11279  eV     1   --> A''            
     e(  5 -  5) =     -8.11064  eV     1   --> A'             
     e(  6 -  6) =     -5.98686  eV     1   --> A'             
     e(  7 -  7) =      4.59569  eV     1   --> A'             
     e(  8 -  8) =      6.00248  eV     1   --> A'             
     e(  9 -  9) =      6.61714  eV     1   --> A''            
     e( 10 - 10) =      8.61849  eV     1   --> A'             

 **************************************************************************

 **************************************************************************

                    xk=(  -0.15000,   0.00000,   0.15000  )

     Band symmetry, C_s (m)     point group:

     e(  1 -  1) =     -8.21020  eV     1   --> A'             
     e(  2 -  2) =     -8.19246  eV     1   --> A''            
     e(  3 -  3) =     -8.19046  eV     1   --> A'             
     e(  4 -  4) =     -8.11255  eV     1   --> A''            
     e(  5 -  5) =     -8.11081  eV     1   --> A'             
     e(  6 -  6) =     -6.03399  eV     1   --> A'             
     e(  7 -  7) =      4.85518  eV     1   --> A'             
     e(  8 -  8) =      6.14367  eV     1   --> A'             
     e(  9 -  9) =      6.64450  eV     1   --> A''            
     e( 10 - 10) =      8.50275  eV     1   --> A'             

 **************************************************************************

 **************************************************************************

                    xk=(  -0.13125,   0.00000,   0.13125  )

     Band symmetry, C_s (m)     point group:

     e(  1 -  1) =     -8.20700  eV     1   --> A'             
     e(  2 -  2) =     -8.19316  eV     1   --> A''            
     e(  3 -  3) =     -8.19155  eV     1   --> A'             
     e(  4 -  4) =     -8.11233  eV     1   --> A''            
     e(  5 -  5) =     -8.11097  eV     1   --> A'             
     e(  6 -  6) =     -6.07589  eV     1   --> A'             
     e(  7 -  7) =      5.11714  eV     1   --> A'             
     e(  8 -  8) =      6.27391  eV     1   --> A'             
     e(  9 -  9) =      6.66804  eV     1   --> A''            
     e( 10 - 10) =      8.37352  eV     1   --> A'             

 **************************************************************************

 **************************************************************************

                    xk=(  -0.11250,   0.00000,   0.11250  )

     Band symmetry, C_s (m)     point group:

     e(  1 -  1) =     -8.20412  eV     1   --> A'             
     e(  2 -  2) =     -8.19377  eV     1   --> A''            
     e(  3 -  3) =     -8.19254  eV     1   --> A'             
     e(  4 -  4) =     -8.11213  eV     1   --> A''            
     e(  5 -  5) =     -8.11111  eV     1   --> A'             
     e(  6 -  6) =     -6.11243  eV     1   --> A'             
     e(  7 -  7) =      5.38058  eV     1   --> A'             
     e(  8 -  8) =      6.39135  eV     1   --> A'             
     e(  9 -  9) =      6.68796  eV     1   --> A''            
     e( 10 - 10) =      8.22897  eV     1   --> A'             

 **************************************************************************

 **************************************************************************

                    xk=(  -0.09375,   0.00000,   0.09375  )

     Band symmetry, C_s (m)     point group:

     e(  1 -  1) =     -8.20158  eV     1   --> A'             
     e(  2 -  2) =     -8.19430  eV     1   --> A''            
     e(  3 -  3) =     -8.19341  eV     1   --> A'             
     e(  4 -  4) =     -8.11195  eV     1   --> A''            
     e(  5 -  5) =     -8.11123  eV     1   --> A'             
     e(  6 -  6) =     -6.14352  eV     1   --> A'             
     e(  7 -  7) =      5.64422  eV     1   --> A'             
     e(  8 -  8) =      6.49421  eV     1   --> A'             
     e(  9 -  9) =      6.70443  eV     1   --> A''            
     e( 10 - 10) =      8.06795  eV     1   --> A'             

 **************************************************************************

 **************************************************************************

                    xk=(  -0.07500,   0.00000,   0.07500  )

     Band symmetry, C_s (m)     point group:

     e(  1 -  1) =     -8.19945  eV     1   --> A'             
     e(  2 -  2) =     -8.19473  eV     1   --> A''            
     e(  3 -  3) =     -8.19414  eV     1   --> A'             
     e(  4 -  4) =     -8.11180  eV     1   --> A''            
     e(  5 -  5) =     -8.11133  eV     1   --> A'             
     e(  6 -  6) =     -6.16908  eV     1   --> A'             
     e(  7 -  7) =      5.90624  eV     1   --> A'             
     e(  8 -  8) =      6.58084  eV     1   --> A'             
     e(  9 -  9) =      6.71765  eV     1   --> A''            
     e( 10 - 10) =      7.89054  eV     1   --> A'             

 **************************************************************************

 **************************************************************************

                    xk=(  -0.05625,   0.00000,   0.05625  )

     Band symmetry, C_s (m)     point group:

     e(  1 -  1) =     -8.19775  eV     1   --> A'             
     e(  2 -  2) =     -8.19507  eV     1   --> A''            
     e(  3 -  3) =     -8.19473  eV     1   --> A'             
     e(  4 -  4) =     -8.11168  eV     1   --> A''            
     e(  5 -  5) =     -8.11141  eV     1   --> A'             
     e(  6 -  6) =     -6.18903  eV     1   --> A'             
     e(  7 -  7) =      6.16370  eV     1   --> A'             
     e(  8 -  8) =      6.64979  eV     1   --> A'             
     e(  9 -  9) =      6.72775  eV     1   --> A''            
     e( 10 - 10) =      7.69875  eV     1   --> A'             

 **************************************************************************

 **************************************************************************

                    xk=(  -0.03750,   0.00000,   0.03750  )

     Band symmetry, C_s (m)     point group:

     e(  1 -  1) =     -8.19651  eV     1   --> A'             
     e(  2 -  2) =     -8.19531  eV     1   --> A''            
     e(  3 -  3) =     -8.19516  eV     1   --> A'             
     e(  4 -  4) =     -8.11159  eV     1   --> A''            
     e(  5 -  5) =     -8.11147  eV     1   --> A'             
     e(  6 -  6) =     -6.20332  eV     1   --> A'             
     e(  7 -  7) =      6.41067  eV     1   --> A'             
     e(  8 -  8) =      6.69990  eV     1   --> A'             
     e(  9 -  9) =      6.73487  eV     1   --> A''            
     e( 10 - 10) =      7.49835  eV     1   --> A'             

 **************************************************************************

 **************************************************************************

                    xk=(  -0.01875,   0.00000,   0.01875  )

     Band symmetry, C_s (m)     point group:

     e(  1 -  1) =     -8.19576  eV     1   --> A'             
     e(  2 -  3) =     -8.19546  eV     2   --> A'             
     e(  2 -  3) =     -8.19546  eV     2   --> A''            
     e(  4 -  5) =     -8.11153  eV     2   --> A'             
     e(  4 -  5) =     -8.11153  eV     2   --> A''            
     e(  6 -  6) =     -6.21191  eV     1   --> A'             
     e(  7 -  7) =      6.62914  eV     1   --> A'             
     e(  8 -  8) =      6.73032  eV     1   --> A'             
     e(  9 -  9) =      6.73911  eV     1   --> A''            
     e( 10 - 10) =      7.30759  eV     1   --> A'             

 **************************************************************************

 **************************************************************************

                    xk=(   0.00000,   0.00000,   0.00000  )

     point group T_d (-43m) 
     there are  5 classes
     the character table:

       E     8C3   3C2   6S4   6s_d 
A_1    1.00  1.00  1.00  1.00  1.00
A_2    1.00  1.00  1.00 -1.00 -1.00
E      2.00 -1.00  2.00  0.00  0.00
T_1    3.00  0.00 -1.00  1.00 -1.00
T_2    3.00  0.00 -1.00 -1.00  1.00

     the symmetry operations in each class and the name of the first element:

     E        1
                                                                 
     8C3      5    7    8    6   12    9   10   11
                                                                 
     3C2      2    3    4
                                                                 
     6S4     15   16   20   19   23   24
                                                                 
     6s_d    13   14   17   18   21   22
                                                                 

     Band symmetry, T_d (-43m)  point group:

     e(  1 -  3) =     -8.19551  eV     3   --> T_2  G_15 P_4  
     e(  4 -  5) =     -8.11152  eV     2   --> E    G_12 P_3  
     e(  6 -  6) =     -6.21478  eV     1   --> A_1  G_1  P_1  
     e(  7 -  9) =      6.74051  eV     3   --> T_2  G_15 P_4  
     e( 10 - 10) =      7.20540  eV     1   --> A_1  G_1  P_1  

 **************************************************************************

     BANDS        :     35.48s CPU     43.24s WALL


   This run was terminated on:   9:42:29  23Mar2024            

=------------------------------------------------------------------------------=
   JOB DONE.
=------------------------------------------------------------------------------=
