
     Program PWSCF v.7.2 starts on 19Mar2024 at 11:42:30 

     This program is part of the open-source Quantum ESPRESSO suite
     for quantum simulation of materials; please cite
         "P. Giannozzi et al., J. Phys.:Condens. Matter 21 395502 (2009);
         "P. Giannozzi et al., J. Phys.:Condens. Matter 29 465901 (2017);
         "P. Giannozzi et al., J. Chem. Phys. 152 154105 (2020);
          URL http://www.quantum-espresso.org", 
     in publications or presentations arising from this work. More details at
     http://www.quantum-espresso.org/quote

     Serial version
     5635 MiB available memory on the printing compute node when the environment starts

     Waiting for input...
     Reading input from standard input

     Current dimensions of program PWSCF are:
     Max number of different atomic species (ntypx) = 10
     Max number of k-points (npk) =  40000
     Max angular momentum in pseudopotentials (lmaxx) =  4
     file Ga.pz-dn-rrkjus_psl.0.2.UPF: wavefunction(s)  4S 3D renormalized


     G-vector sticks info
     --------------------
     sticks:   dense  smooth     PW     G-vecs:    dense   smooth      PW
     Sum        1237    1237    367                28763    28763    4621

     Using Slab Decomposition



     bravais-lattice index     =            2
     lattice parameter (alat)  =      10.6028  a.u.
     unit-cell volume          =     297.9932 (a.u.)^3
     number of atoms/cell      =            2
     number of atomic types    =            2
     number of electrons       =        18.00
     number of Kohn-Sham states=            9
     kinetic-energy cutoff     =      80.0000  Ry
     charge density cutoff     =     320.0000  Ry
     scf convergence threshold =      1.0E-08
     mixing beta               =       0.7000
     number of iterations used =            8  plain     mixing
     Exchange-correlation= LDA
                           (   1   1   0   0   0   0   0)

     celldm(1)=  10.602837  celldm(2)=   0.000000  celldm(3)=   0.000000
     celldm(4)=   0.000000  celldm(5)=   0.000000  celldm(6)=   0.000000

     crystal axes: (cart. coord. in units of alat)
               a(1) = (  -0.500000   0.000000   0.500000 )  
               a(2) = (   0.000000   0.500000   0.500000 )  
               a(3) = (  -0.500000   0.500000   0.000000 )  

     reciprocal axes: (cart. coord. in units 2 pi/alat)
               b(1) = ( -1.000000 -1.000000  1.000000 )  
               b(2) = (  1.000000  1.000000  1.000000 )  
               b(3) = ( -1.000000  1.000000 -1.000000 )  


     PseudoPot. # 1 for Ga read from file:
     /home/paolo/LABQSM/pseudo/Ga.pz-dn-rrkjus_psl.0.2.UPF
     MD5 check sum: 337958ae198bc3768054a43796a587a1
     Pseudo is Ultrasoft + core correction, Zval = 13.0
     Generated using "atomic" code by A. Dal Corso  v.5.0.2 svn rev. 9415
     Using radial grid of 1205 points,  6 beta functions with: 
                l(1) =   0
                l(2) =   0
                l(3) =   1
                l(4) =   1
                l(5) =   2
                l(6) =   2
     Q(r) pseudized with 0 coefficients 


     PseudoPot. # 2 for As read from file:
     /home/paolo/LABQSM/pseudo/As.pz-n-rrkjus_psl.0.2.UPF
     MD5 check sum: f80104272e9b817acfe428865afbdb7e
     Pseudo is Ultrasoft + core correction, Zval =  5.0
     Generated using "atomic" code by A. Dal Corso  v.5.0.2 svn rev. 9415
     Using radial grid of 1209 points,  4 beta functions with: 
                l(1) =   0
                l(2) =   0
                l(3) =   1
                l(4) =   1
     Q(r) pseudized with 0 coefficients 


     atomic species   valence    mass     pseudopotential
        Ga            13.00    69.72300     Ga( 1.00)
        As             5.00    74.92200     As( 1.00)

     24 Sym. Ops. (no inversion) found



   Cartesian axes

     site n.     atom                  positions (alat units)
         1           Ga  tau(   1) = (   0.0000000   0.0000000   0.0000000  )
         2           As  tau(   2) = (   0.2500000   0.2500000   0.2500000  )

     number of k points=    29
                       cart. coord. in units 2pi/alat
        k(    1) = (   0.0000000   0.0000000   0.0000000), wk =   0.0039062
        k(    2) = (  -0.1250000   0.1250000  -0.1250000), wk =   0.0312500
        k(    3) = (  -0.2500000   0.2500000  -0.2500000), wk =   0.0312500
        k(    4) = (  -0.3750000   0.3750000  -0.3750000), wk =   0.0312500
        k(    5) = (   0.5000000  -0.5000000   0.5000000), wk =   0.0156250
        k(    6) = (   0.0000000   0.2500000   0.0000000), wk =   0.0234375
        k(    7) = (  -0.1250000   0.3750000  -0.1250000), wk =   0.0937500
        k(    8) = (  -0.2500000   0.5000000  -0.2500000), wk =   0.0937500
        k(    9) = (   0.6250000  -0.3750000   0.6250000), wk =   0.0937500
        k(   10) = (   0.5000000  -0.2500000   0.5000000), wk =   0.0937500
        k(   11) = (   0.3750000  -0.1250000   0.3750000), wk =   0.0937500
        k(   12) = (   0.2500000   0.0000000   0.2500000), wk =   0.0468750
        k(   13) = (   0.0000000   0.5000000   0.0000000), wk =   0.0234375
        k(   14) = (  -0.1250000   0.6250000  -0.1250000), wk =   0.0937500
        k(   15) = (   0.7500000  -0.2500000   0.7500000), wk =   0.0937500
        k(   16) = (   0.6250000  -0.1250000   0.6250000), wk =   0.0937500
        k(   17) = (   0.5000000   0.0000000   0.5000000), wk =   0.0468750
        k(   18) = (   0.0000000   0.7500000   0.0000000), wk =   0.0234375
        k(   19) = (   0.8750000  -0.1250000   0.8750000), wk =   0.0937500
        k(   20) = (   0.7500000   0.0000000   0.7500000), wk =   0.0468750
        k(   21) = (   0.0000000  -1.0000000   0.0000000), wk =   0.0117188
        k(   22) = (  -0.2500000   0.5000000   0.0000000), wk =   0.0937500
        k(   23) = (   0.6250000  -0.3750000   0.8750000), wk =   0.1875000
        k(   24) = (   0.5000000  -0.2500000   0.7500000), wk =   0.0937500
        k(   25) = (   0.7500000  -0.2500000   1.0000000), wk =   0.0937500
        k(   26) = (   0.6250000  -0.1250000   0.8750000), wk =   0.1875000
        k(   27) = (   0.5000000   0.0000000   0.7500000), wk =   0.0937500
        k(   28) = (  -0.2500000  -1.0000000   0.0000000), wk =   0.0468750
        k(   29) = (  -0.5000000  -1.0000000   0.0000000), wk =   0.0234375

     Dense  grid:    28763 G-vectors     FFT dimensions: (  45,  45,  45)

     Estimated max dynamical RAM per process >     120.30 MB

     Initial potential from superposition of free atoms

     starting charge      17.9975, renormalised to      18.0000
     Starting wfcs are   13 randomized atomic wfcs

     total cpu time spent up to now is        3.3 secs

     Self-consistent Calculation

     iteration #  1     ecut=    80.00 Ry     beta= 0.70
     Davidson diagonalization with overlap
     ethr =  1.00E-02,  avg # of iterations =  1.5

     Threshold (ethr) on eigenvalues was too large:
     Diagonalizing with lowered threshold

     Davidson diagonalization with overlap
     ethr =  3.85E-04,  avg # of iterations =  2.0

     total cpu time spent up to now is       11.2 secs

     total energy              =    -190.71208808 Ry
     estimated scf accuracy    <       0.05613072 Ry

     iteration #  2     ecut=    80.00 Ry     beta= 0.70
     Davidson diagonalization with overlap
     ethr =  3.12E-04,  avg # of iterations =  2.3

     total cpu time spent up to now is       18.1 secs

     total energy              =    -190.70968622 Ry
     estimated scf accuracy    <       0.07378512 Ry

     iteration #  3     ecut=    80.00 Ry     beta= 0.70
     Davidson diagonalization with overlap
     ethr =  3.12E-04,  avg # of iterations =  2.0

     total cpu time spent up to now is       22.7 secs

     total energy              =    -190.72603253 Ry
     estimated scf accuracy    <       0.01750558 Ry

     iteration #  4     ecut=    80.00 Ry     beta= 0.70
     Davidson diagonalization with overlap
     ethr =  9.73E-05,  avg # of iterations =  2.0

     total cpu time spent up to now is       27.3 secs

     total energy              =    -190.72895499 Ry
     estimated scf accuracy    <       0.00012790 Ry

     iteration #  5     ecut=    80.00 Ry     beta= 0.70
     Davidson diagonalization with overlap
     ethr =  7.11E-07,  avg # of iterations =  4.0

     total cpu time spent up to now is       32.7 secs

     total energy              =    -190.72911320 Ry
     estimated scf accuracy    <       0.00009304 Ry

     iteration #  6     ecut=    80.00 Ry     beta= 0.70
     Davidson diagonalization with overlap
     ethr =  5.17E-07,  avg # of iterations =  2.0

     total cpu time spent up to now is       37.2 secs

     total energy              =    -190.72898016 Ry
     estimated scf accuracy    <       0.00023919 Ry

     iteration #  7     ecut=    80.00 Ry     beta= 0.70
     Davidson diagonalization with overlap
     ethr =  5.17E-07,  avg # of iterations =  3.0

     total cpu time spent up to now is       42.0 secs

     total energy              =    -190.72902470 Ry
     estimated scf accuracy    <       0.00000054 Ry

     iteration #  8     ecut=    80.00 Ry     beta= 0.70
     Davidson diagonalization with overlap
     ethr =  3.01E-09,  avg # of iterations =  5.5

     total cpu time spent up to now is       49.2 secs

     total energy              =    -190.72902566 Ry
     estimated scf accuracy    <       0.00000091 Ry

     iteration #  9     ecut=    80.00 Ry     beta= 0.70
     Davidson diagonalization with overlap
     ethr =  3.01E-09,  avg # of iterations =  2.0

     total cpu time spent up to now is       54.1 secs

     total energy              =    -190.72902566 Ry
     estimated scf accuracy    <       0.00000030 Ry

     iteration # 10     ecut=    80.00 Ry     beta= 0.70
     Davidson diagonalization with overlap
     ethr =  1.68E-09,  avg # of iterations =  2.0

     total cpu time spent up to now is       59.2 secs

     End of self-consistent calculation

          k = 0.0000 0.0000 0.0000 (  3647 PWs)   bands (ev):

    -8.1967  -8.1967  -8.1967  -8.1127  -8.1127  -6.2146   6.7407   6.7407
     6.7407

          k =-0.1250 0.1250-0.1250 (  3617 PWs)   bands (ev):

    -8.2113  -8.1928  -8.1928  -8.1128  -8.1128  -6.0266   4.7129   6.4926
     6.4926

          k =-0.2500 0.2500-0.2500 (  3602 PWs)   bands (ev):

    -8.2429  -8.1846  -8.1846  -8.1121  -8.1121  -5.5012   2.4840   6.0338
     6.0338

          k =-0.3750 0.3750-0.3750 (  3609 PWs)   bands (ev):

    -8.2708  -8.1781  -8.1781  -8.1095  -8.1095  -4.7936   0.6870   5.6830
     5.6830

          k = 0.5000-0.5000 0.5000 (  3600 PWs)   bands (ev):

    -8.2816  -8.1760  -8.1760  -8.1079  -8.1079  -4.3860  -0.0928   5.5574
     5.5574

          k = 0.0000 0.2500 0.0000 (  3615 PWs)   bands (ev):

    -8.2195  -8.1892  -8.1892  -8.1159  -8.1105  -5.9642   4.6915   6.0501
     6.0501

          k =-0.1250 0.3750-0.1250 (  3609 PWs)   bands (ev):

    -8.2444  -8.1823  -8.1806  -8.1183  -8.1084  -5.5498   3.0127   5.5150
     5.5436

          k =-0.2500 0.5000-0.2500 (  3596 PWs)   bands (ev):

    -8.2698  -8.1766  -8.1734  -8.1172  -8.1066  -4.8857   1.2079   4.8936
     5.2444

          k = 0.6250-0.3750 0.6250 (  3602 PWs)   bands (ev):

    -8.2836  -8.1739  -8.1708  -8.1129  -8.1070  -4.3108   0.0719   4.4500
     5.2370

          k = 0.5000-0.2500 0.5000 (  3609 PWs)   bands (ev):

    -8.2798  -8.1742  -8.1730  -8.1109  -8.1098  -4.4558   0.3361   4.3071
     5.5140

          k = 0.3750-0.1250 0.3750 (  3613 PWs)   bands (ev):

    -8.2595  -8.1797  -8.1777  -8.1148  -8.1097  -5.1257   1.7720   4.5409
     5.9914

          k = 0.2500 0.0000 0.2500 (  3601 PWs)   bands (ev):

    -8.2317  -8.1885  -8.1849  -8.1150  -8.1109  -5.7254   3.5166   5.3077
     6.4504

          k = 0.0000 0.5000 0.0000 (  3591 PWs)   bands (ev):

    -8.2645  -8.1709  -8.1709  -8.1252  -8.1051  -5.2598   2.5542   4.9813
     4.9813

          k =-0.1250 0.6250-0.1250 (  3589 PWs)   bands (ev):

    -8.2840  -8.1642  -8.1621  -8.1280  -8.1029  -4.6954   1.3468   4.2225
     4.6415

          k = 0.7500-0.2500 0.7500 (  3595 PWs)   bands (ev):

    -8.2935  -8.1646  -8.1587  -8.1243  -8.1041  -4.0899   0.3033   3.3716
     4.6243

          k = 0.6250-0.1250 0.6250 (  3601 PWs)   bands (ev):

    -8.2908  -8.1679  -8.1613  -8.1176  -8.1094  -3.9910   0.1683   2.9419
     4.9312

          k = 0.5000 0.0000 0.5000 (  3599 PWs)   bands (ev):

    -8.2779  -8.1721  -8.1695  -8.1142  -8.1119  -4.5208   0.9526   3.2342
     5.4723

          k = 0.0000 0.7500 0.0000 (  3599 PWs)   bands (ev):

    -8.3011  -8.1519  -8.1519  -8.1358  -8.0997  -4.2655   0.6858   4.2296
     4.2296

          k = 0.8750-0.1250 0.8750 (  3599 PWs)   bands (ev):

    -8.3079  -8.1512  -8.1479  -8.1350  -8.0998  -3.7867   0.0250   3.5012
     4.1417

          k = 0.7500 0.0000 0.7500 (  3580 PWs)   bands (ev):

    -8.3023  -8.1589  -8.1512  -8.1276  -8.1045  -3.6555  -0.0655   2.7215
     4.3987

          k = 0.0000-1.0000 0.0000 (  3572 PWs)   bands (ev):

    -8.3146  -8.1439  -8.1439  -8.1404  -8.0975  -3.6206  -0.2570   3.9661
     3.9661

          k =-0.2500 0.5000 0.0000 (  3598 PWs)   bands (ev):

    -8.2663  -8.1748  -8.1717  -8.1212  -8.1065  -5.0585   1.9427   4.2367
     5.3853

          k = 0.6250-0.3750 0.8750 (  3604 PWs)   bands (ev):

    -8.2835  -8.1711  -8.1645  -8.1197  -8.1067  -4.4024   0.6953   3.5616
     4.9315

          k = 0.5000-0.2500 0.7500 (  3600 PWs)   bands (ev):

    -8.2899  -8.1704  -8.1619  -8.1170  -8.1081  -4.0318   0.0746   3.3841
     4.7221

          k = 0.7500-0.2500 1.0000 (  3603 PWs)   bands (ev):

    -8.2967  -8.1603  -8.1541  -8.1295  -8.1025  -4.1449   0.5435   3.5734
     4.1615

          k = 0.6250-0.1250 0.8750 (  3600 PWs)   bands (ev):

    -8.2993  -8.1632  -8.1515  -8.1253  -8.1057  -3.7269   0.0370   2.9273
     3.9757

          k = 0.5000 0.0000 0.7500 (  3589 PWs)   bands (ev):

    -8.2939  -8.1674  -8.1552  -8.1209  -8.1086  -3.8740   0.2118   2.7779
     4.3303

          k =-0.2500-1.0000 0.0000 (  3596 PWs)   bands (ev):

    -8.3081  -8.1535  -8.1473  -8.1324  -8.1014  -3.5884  -0.1674   3.4763
     3.5652

          k =-0.5000-1.0000 0.0000 (  3636 PWs)   bands (ev):

    -8.3006  -8.1640  -8.1486  -8.1245  -8.1072  -3.5556  -0.0656   3.0661
     3.2473

     highest occupied level (ev):     6.7407

!    total energy              =    -190.72902571 Ry
     estimated scf accuracy    <          4.8E-09 Ry

     The total energy is the sum of the following terms:
     one-electron contribution =    -111.09976232 Ry
     hartree contribution      =      71.21850867 Ry
     xc contribution           =     -57.12616727 Ry
     ewald contribution        =     -93.72160479 Ry

     convergence has been achieved in  10 iterations

     Writing all to output data dir ./SCRATCH/gallium arsenide.save/

     init_run     :      3.02s CPU      3.08s WALL (       1 calls)
     electrons    :     55.22s CPU     55.96s WALL (       1 calls)

     Called by init_run:
     wfcinit      :      2.04s CPU      2.05s WALL (       1 calls)
     potinit      :      0.03s CPU      0.03s WALL (       1 calls)
     hinit0       :      0.85s CPU      0.85s WALL (       1 calls)

     Called by electrons:
     c_bands      :     45.98s CPU     46.26s WALL (      11 calls)
     sum_band     :      8.21s CPU      8.56s WALL (      11 calls)
     v_of_rho     :      0.12s CPU      0.12s WALL (      11 calls)
     newd         :      0.91s CPU      1.04s WALL (      11 calls)
     mix_rho      :      0.08s CPU      0.08s WALL (      11 calls)

     Called by c_bands:
     init_us_2    :      1.11s CPU      1.12s WALL (     667 calls)
     init_us_2:cp :      1.11s CPU      1.12s WALL (     667 calls)
     cegterg      :     44.13s CPU     44.38s WALL (     319 calls)

     Called by *egterg:
     cdiaghg      :      0.16s CPU      0.17s WALL (    1114 calls)
     h_psi        :     39.42s CPU     39.66s WALL (    1172 calls)
     s_psi        :      1.54s CPU      1.55s WALL (    1172 calls)
     g_psi        :      0.19s CPU      0.19s WALL (     824 calls)

     Called by h_psi:
     h_psi:calbec :      1.81s CPU      1.81s WALL (    1172 calls)
     vloc_psi     :     35.93s CPU     36.14s WALL (    1172 calls)
     add_vuspsi   :      1.58s CPU      1.60s WALL (    1172 calls)

     General routines
     calbec       :      2.40s CPU      2.41s WALL (    1491 calls)
     fft          :      0.14s CPU      0.14s WALL (      45 calls)
     ffts         :      0.03s CPU      0.03s WALL (      11 calls)
     fftw         :     37.69s CPU     37.89s WALL (   19699 calls)


     PWSCF        :     58.44s CPU     59.27s WALL


   This run was terminated on:  11:43:29  19Mar2024            

=------------------------------------------------------------------------------=
   JOB DONE.
=------------------------------------------------------------------------------=
