
     Program PWSCF v.7.2 starts on 12May2024 at  9:57:36 

     This program is part of the open-source Quantum ESPRESSO suite
     for quantum simulation of materials; please cite
         "P. Giannozzi et al., J. Phys.:Condens. Matter 21 395502 (2009);
         "P. Giannozzi et al., J. Phys.:Condens. Matter 29 465901 (2017);
         "P. Giannozzi et al., J. Chem. Phys. 152 154105 (2020);
          URL http://www.quantum-espresso.org", 
     in publications or presentations arising from this work. More details at
     http://www.quantum-espresso.org/quote

     Serial version
     9574 MiB available memory on the printing compute node when the environment starts

     Waiting for input...
     Reading input from standard input

     Current dimensions of program PWSCF are:
     Max number of different atomic species (ntypx) = 10
     Max number of k-points (npk) =  40000
     Max angular momentum in pseudopotentials (lmaxx) =  4


     G-vector sticks info
     --------------------
     sticks:   dense  smooth     PW     G-vecs:    dense   smooth      PW
     Sum        1507    1507    433                38781    38781    5985

     Using Slab Decomposition



     bravais-lattice index     =            2
     lattice parameter (alat)  =      10.4684  a.u.
     unit-cell volume          =     286.7982 (a.u.)^3
     number of atoms/cell      =            1
     number of atomic types    =            1
     number of electrons       =         4.00
     number of Kohn-Sham states=            2
     kinetic-energy cutoff     =     100.0000  Ry
     charge density cutoff     =     400.0000  Ry
     scf convergence threshold =      1.0E-08
     mixing beta               =       0.7000
     number of iterations used =            8  plain     mixing
     Exchange-correlation=  SLA  PZ   NOGX NOGC
                           (   1   1   0   0   0   0   0)

     celldm(1)=  10.468364  celldm(2)=   0.000000  celldm(3)=   0.000000
     celldm(4)=   0.000000  celldm(5)=   0.000000  celldm(6)=   0.000000

     crystal axes: (cart. coord. in units of alat)
               a(1) = (  -0.500000   0.000000   0.500000 )  
               a(2) = (   0.000000   0.500000   0.500000 )  
               a(3) = (  -0.500000   0.500000   0.000000 )  

     reciprocal axes: (cart. coord. in units 2 pi/alat)
               b(1) = ( -1.000000 -1.000000  1.000000 )  
               b(2) = (  1.000000  1.000000  1.000000 )  
               b(3) = ( -1.000000  1.000000 -1.000000 )  


     PseudoPot. # 1 for Si read from file:
     /home/paolo/project_labqsm/pseudopotentials/Si.pz-vbc.UPF
     MD5 check sum: dc3b11d017da532b29132e08c0a6883c
     Pseudo is Norm-conserving, Zval =  4.0
     Generated by new atomic code, or converted to UPF format
     Using radial grid of  431 points,  2 beta functions with: 
                l(1) =   0
                l(2) =   1

     atomic species   valence    mass     pseudopotential
        Si             4.00    12.01100     Si( 1.00)

     48 Sym. Ops., with inversion, found



   Cartesian axes

     site n.     atom                  positions (alat units)
         1           Si  tau(   1) = (   0.0000000   0.0000000   0.0000000  )

     number of k points=    29
                       cart. coord. in units 2pi/alat
        k(    1) = (   0.0000000   0.0000000   0.0000000), wk =   0.0039062
        k(    2) = (  -0.1250000   0.1250000  -0.1250000), wk =   0.0312500
        k(    3) = (  -0.2500000   0.2500000  -0.2500000), wk =   0.0312500
        k(    4) = (  -0.3750000   0.3750000  -0.3750000), wk =   0.0312500
        k(    5) = (   0.5000000  -0.5000000   0.5000000), wk =   0.0156250
        k(    6) = (   0.0000000   0.2500000   0.0000000), wk =   0.0234375
        k(    7) = (  -0.1250000   0.3750000  -0.1250000), wk =   0.0937500
        k(    8) = (  -0.2500000   0.5000000  -0.2500000), wk =   0.0937500
        k(    9) = (   0.6250000  -0.3750000   0.6250000), wk =   0.0937500
        k(   10) = (   0.5000000  -0.2500000   0.5000000), wk =   0.0937500
        k(   11) = (   0.3750000  -0.1250000   0.3750000), wk =   0.0937500
        k(   12) = (   0.2500000   0.0000000   0.2500000), wk =   0.0468750
        k(   13) = (   0.0000000   0.5000000   0.0000000), wk =   0.0234375
        k(   14) = (  -0.1250000   0.6250000  -0.1250000), wk =   0.0937500
        k(   15) = (   0.7500000  -0.2500000   0.7500000), wk =   0.0937500
        k(   16) = (   0.6250000  -0.1250000   0.6250000), wk =   0.0937500
        k(   17) = (   0.5000000   0.0000000   0.5000000), wk =   0.0468750
        k(   18) = (   0.0000000   0.7500000   0.0000000), wk =   0.0234375
        k(   19) = (   0.8750000  -0.1250000   0.8750000), wk =   0.0937500
        k(   20) = (   0.7500000   0.0000000   0.7500000), wk =   0.0468750
        k(   21) = (   0.0000000  -1.0000000   0.0000000), wk =   0.0117188
        k(   22) = (  -0.2500000   0.5000000   0.0000000), wk =   0.0937500
        k(   23) = (   0.6250000  -0.3750000   0.8750000), wk =   0.1875000
        k(   24) = (   0.5000000  -0.2500000   0.7500000), wk =   0.0937500
        k(   25) = (   0.7500000  -0.2500000   1.0000000), wk =   0.0937500
        k(   26) = (   0.6250000  -0.1250000   0.8750000), wk =   0.1875000
        k(   27) = (   0.5000000   0.0000000   0.7500000), wk =   0.0937500
        k(   28) = (  -0.2500000  -1.0000000   0.0000000), wk =   0.0468750
        k(   29) = (  -0.5000000  -1.0000000   0.0000000), wk =   0.0234375

     Dense  grid:    38781 G-vectors     FFT dimensions: (  48,  48,  48)

     Estimated max dynamical RAM per process >      29.18 MB

     Initial potential from superposition of free atoms

     starting charge       3.9995, renormalised to       4.0000
     Starting wfcs are    4 randomized atomic wfcs

     total cpu time spent up to now is        0.4 secs

     Self-consistent Calculation

     iteration #  1     ecut=   100.00 Ry     beta= 0.70
     Davidson diagonalization with overlap
     ethr =  1.00E-02,  avg # of iterations =  1.0

     Threshold (ethr) on eigenvalues was too large:
     Diagonalizing with lowered threshold

     Davidson diagonalization with overlap
     ethr =  7.95E-05,  avg # of iterations =  2.9

     total cpu time spent up to now is        1.2 secs

     total energy              =      -7.68949156 Ry
     estimated scf accuracy    <       0.00351676 Ry

     iteration #  2     ecut=   100.00 Ry     beta= 0.70
     Davidson diagonalization with overlap
     ethr =  8.79E-05,  avg # of iterations =  1.1

     total cpu time spent up to now is        1.5 secs

     total energy              =      -7.68977612 Ry
     estimated scf accuracy    <       0.00006883 Ry

     iteration #  3     ecut=   100.00 Ry     beta= 0.70
     Davidson diagonalization with overlap
     ethr =  1.72E-06,  avg # of iterations =  2.1

     total cpu time spent up to now is        1.9 secs

     total energy              =      -7.68979831 Ry
     estimated scf accuracy    <       0.00000189 Ry

     iteration #  4     ecut=   100.00 Ry     beta= 0.70
     Davidson diagonalization with overlap
     ethr =  4.73E-08,  avg # of iterations =  4.2

     total cpu time spent up to now is        2.5 secs

     total energy              =      -7.68980109 Ry
     estimated scf accuracy    <       0.00000007 Ry

     iteration #  5     ecut=   100.00 Ry     beta= 0.70
     Davidson diagonalization with overlap
     ethr =  1.81E-09,  avg # of iterations =  3.9

     total cpu time spent up to now is        3.1 secs

     End of self-consistent calculation

          k = 0.0000 0.0000 0.0000 (  4909 PWs)   bands (ev):

    -7.1097   3.8318

          k =-0.1250 0.1250-0.1250 (  4852 PWs)   bands (ev):

    -6.9398   2.8169

          k =-0.2500 0.2500-0.2500 (  4822 PWs)   bands (ev):

    -6.4605   1.0056

          k =-0.3750 0.3750-0.3750 (  4837 PWs)   bands (ev):

    -5.8130  -0.5887

          k = 0.5000-0.5000 0.5000 (  4850 PWs)   bands (ev):

    -5.4431  -1.2912

          k = 0.0000 0.2500 0.0000 (  4861 PWs)   bands (ev):

    -6.8830   2.9591

          k =-0.1250 0.3750-0.1250 (  4846 PWs)   bands (ev):

    -6.5052   1.5786

          k =-0.2500 0.5000-0.2500 (  4837 PWs)   bands (ev):

    -5.8994  -0.0240

          k = 0.6250-0.3750 0.6250 (  4841 PWs)   bands (ev):

    -5.3817  -1.0478

          k = 0.5000-0.2500 0.5000 (  4846 PWs)   bands (ev):

    -5.5109  -0.8103

          k = 0.3750-0.1250 0.3750 (  4833 PWs)   bands (ev):

    -6.1178   0.4833

          k = 0.2500 0.0000 0.2500 (  4830 PWs)   bands (ev):

    -6.6656   1.9732

          k = 0.0000 0.5000 0.0000 (  4833 PWs)   bands (ev):

    -6.2409   1.4129

          k =-0.1250 0.6250-0.1250 (  4834 PWs)   bands (ev):

    -5.7321   0.4042

          k = 0.7500-0.2500 0.7500 (  4839 PWs)   bands (ev):

    -5.2018  -0.4826

          k = 0.6250-0.1250 0.6250 (  4852 PWs)   bands (ev):

    -5.1155  -0.5636

          k = 0.5000 0.0000 0.5000 (  4852 PWs)   bands (ev):

    -5.5737   0.0557

          k = 0.0000 0.7500 0.0000 (  4848 PWs)   bands (ev):

    -5.3583  -0.0611

          k = 0.8750-0.1250 0.8750 (  4846 PWs)   bands (ev):

    -4.9606  -0.5091

          k = 0.7500 0.0000 0.7500 (  4854 PWs)   bands (ev):

    -4.8518  -0.2905

          k = 0.0000-1.0000 0.0000 (  4824 PWs)   bands (ev):

    -4.8338  -0.7936

          k =-0.2500 0.5000 0.0000 (  4838 PWs)   bands (ev):

    -6.0577   0.8086

          k = 0.6250-0.3750 0.8750 (  4842 PWs)   bands (ev):

    -5.4696  -0.2518

          k = 0.5000-0.2500 0.7500 (  4840 PWs)   bands (ev):

    -5.1477  -0.8058

          k = 0.7500-0.2500 1.0000 (  4835 PWs)   bands (ev):

    -5.2528  -0.1104

          k = 0.6250-0.1250 0.8750 (  4843 PWs)   bands (ev):

    -4.9071  -0.3031

          k = 0.5000 0.0000 0.7500 (  4849 PWs)   bands (ev):

    -5.0228  -0.1435

          k =-0.2500-1.0000 0.0000 (  4854 PWs)   bands (ev):

    -4.8052  -0.5409

          k =-0.5000-1.0000 0.0000 (  4888 PWs)   bands (ev):

    -4.7759   0.1895

     highest occupied level (ev):     3.8318

!    total energy              =      -7.68980116 Ry
     estimated scf accuracy    <          3.0E-10 Ry

     The total energy is the sum of the following terms:
     one-electron contribution =       0.83329846 Ry
     hartree contribution      =       0.47695893 Ry
     xc contribution           =      -1.99248851 Ry
     ewald contribution        =      -7.00757005 Ry

     convergence has been achieved in   5 iterations

     Writing all to output data dir ./SCRATCH/silicon.save/

     init_run     :      0.34s CPU      0.35s WALL (       1 calls)
     electrons    :      2.61s CPU      2.70s WALL (       1 calls)

     Called by init_run:
     wfcinit      :      0.28s CPU      0.28s WALL (       1 calls)
     potinit      :      0.02s CPU      0.02s WALL (       1 calls)
     hinit0       :      0.02s CPU      0.02s WALL (       1 calls)

     Called by electrons:
     c_bands      :      2.17s CPU      2.23s WALL (       6 calls)
     sum_band     :      0.39s CPU      0.41s WALL (       6 calls)
     v_of_rho     :      0.03s CPU      0.04s WALL (       6 calls)
     mix_rho      :      0.02s CPU      0.03s WALL (       6 calls)

     Called by c_bands:
     init_us_2    :      0.08s CPU      0.13s WALL (     377 calls)
     init_us_2:cp :      0.08s CPU      0.13s WALL (     377 calls)
     cegterg      :      2.09s CPU      2.12s WALL (     174 calls)

     Called by *egterg:
     cdiaghg      :      0.00s CPU      0.01s WALL (     586 calls)
     h_psi        :      2.23s CPU      2.24s WALL (     644 calls)
     g_psi        :      0.03s CPU      0.01s WALL (     441 calls)

     Called by h_psi:
     h_psi:calbec :      0.03s CPU      0.03s WALL (     644 calls)
     vloc_psi     :      2.20s CPU      2.17s WALL (     644 calls)
     add_vuspsi   :      0.00s CPU      0.02s WALL (     644 calls)

     General routines
     calbec       :      0.02s CPU      0.03s WALL (     644 calls)
     fft          :      0.05s CPU      0.02s WALL (      18 calls)
     ffts         :      0.02s CPU      0.01s WALL (       6 calls)
     fftw         :      2.31s CPU      2.27s WALL (    2710 calls)


     PWSCF        :      2.97s CPU      3.09s WALL


   This run was terminated on:   9:57:40  12May2024            

=------------------------------------------------------------------------------=
   JOB DONE.
=------------------------------------------------------------------------------=
