
     Program PWSCF v.7.2 starts on 12May2024 at  9:51:22 

     This program is part of the open-source Quantum ESPRESSO suite
     for quantum simulation of materials; please cite
         "P. Giannozzi et al., J. Phys.:Condens. Matter 21 395502 (2009);
         "P. Giannozzi et al., J. Phys.:Condens. Matter 29 465901 (2017);
         "P. Giannozzi et al., J. Chem. Phys. 152 154105 (2020);
          URL http://www.quantum-espresso.org", 
     in publications or presentations arising from this work. More details at
     http://www.quantum-espresso.org/quote

     Serial version
     9290 MiB available memory on the printing compute node when the environment starts

     Waiting for input...
     Reading input from standard input

     Current dimensions of program PWSCF are:
     Max number of different atomic species (ntypx) = 10
     Max number of k-points (npk) =  40000
     Max angular momentum in pseudopotentials (lmaxx) =  4


     G-vector sticks info
     --------------------
     sticks:   dense  smooth     PW     G-vecs:    dense   smooth      PW
     Sum         859     859    253                16889    16889    2741

     Using Slab Decomposition



     bravais-lattice index     =            2
     lattice parameter (alat)  =      10.2631  a.u.
     unit-cell volume          =     270.2564 (a.u.)^3
     number of atoms/cell      =            1
     number of atomic types    =            1
     number of electrons       =         4.00
     number of Kohn-Sham states=            2
     kinetic-energy cutoff     =      60.0000  Ry
     charge density cutoff     =     240.0000  Ry
     scf convergence threshold =      1.0E-08
     mixing beta               =       0.7000
     number of iterations used =            8  plain     mixing
     Exchange-correlation=  SLA  PZ   NOGX NOGC
                           (   1   1   0   0   0   0   0)

     celldm(1)=  10.263102  celldm(2)=   0.000000  celldm(3)=   0.000000
     celldm(4)=   0.000000  celldm(5)=   0.000000  celldm(6)=   0.000000

     crystal axes: (cart. coord. in units of alat)
               a(1) = (  -0.500000   0.000000   0.500000 )  
               a(2) = (   0.000000   0.500000   0.500000 )  
               a(3) = (  -0.500000   0.500000   0.000000 )  

     reciprocal axes: (cart. coord. in units 2 pi/alat)
               b(1) = ( -1.000000 -1.000000  1.000000 )  
               b(2) = (  1.000000  1.000000  1.000000 )  
               b(3) = ( -1.000000  1.000000 -1.000000 )  


     PseudoPot. # 1 for Si read from file:
     /home/paolo/project_labqsm/pseudopotentials/Si.pz-vbc.UPF
     MD5 check sum: dc3b11d017da532b29132e08c0a6883c
     Pseudo is Norm-conserving, Zval =  4.0
     Generated by new atomic code, or converted to UPF format
     Using radial grid of  431 points,  2 beta functions with: 
                l(1) =   0
                l(2) =   1

     atomic species   valence    mass     pseudopotential
        Si             4.00    12.01100     Si( 1.00)

     48 Sym. Ops., with inversion, found



   Cartesian axes

     site n.     atom                  positions (alat units)
         1           Si  tau(   1) = (   0.0000000   0.0000000   0.0000000  )

     number of k points=    29
                       cart. coord. in units 2pi/alat
        k(    1) = (   0.0000000   0.0000000   0.0000000), wk =   0.0039062
        k(    2) = (  -0.1250000   0.1250000  -0.1250000), wk =   0.0312500
        k(    3) = (  -0.2500000   0.2500000  -0.2500000), wk =   0.0312500
        k(    4) = (  -0.3750000   0.3750000  -0.3750000), wk =   0.0312500
        k(    5) = (   0.5000000  -0.5000000   0.5000000), wk =   0.0156250
        k(    6) = (   0.0000000   0.2500000   0.0000000), wk =   0.0234375
        k(    7) = (  -0.1250000   0.3750000  -0.1250000), wk =   0.0937500
        k(    8) = (  -0.2500000   0.5000000  -0.2500000), wk =   0.0937500
        k(    9) = (   0.6250000  -0.3750000   0.6250000), wk =   0.0937500
        k(   10) = (   0.5000000  -0.2500000   0.5000000), wk =   0.0937500
        k(   11) = (   0.3750000  -0.1250000   0.3750000), wk =   0.0937500
        k(   12) = (   0.2500000   0.0000000   0.2500000), wk =   0.0468750
        k(   13) = (   0.0000000   0.5000000   0.0000000), wk =   0.0234375
        k(   14) = (  -0.1250000   0.6250000  -0.1250000), wk =   0.0937500
        k(   15) = (   0.7500000  -0.2500000   0.7500000), wk =   0.0937500
        k(   16) = (   0.6250000  -0.1250000   0.6250000), wk =   0.0937500
        k(   17) = (   0.5000000   0.0000000   0.5000000), wk =   0.0468750
        k(   18) = (   0.0000000   0.7500000   0.0000000), wk =   0.0234375
        k(   19) = (   0.8750000  -0.1250000   0.8750000), wk =   0.0937500
        k(   20) = (   0.7500000   0.0000000   0.7500000), wk =   0.0468750
        k(   21) = (   0.0000000  -1.0000000   0.0000000), wk =   0.0117188
        k(   22) = (  -0.2500000   0.5000000   0.0000000), wk =   0.0937500
        k(   23) = (   0.6250000  -0.3750000   0.8750000), wk =   0.1875000
        k(   24) = (   0.5000000  -0.2500000   0.7500000), wk =   0.0937500
        k(   25) = (   0.7500000  -0.2500000   1.0000000), wk =   0.0937500
        k(   26) = (   0.6250000  -0.1250000   0.8750000), wk =   0.1875000
        k(   27) = (   0.5000000   0.0000000   0.7500000), wk =   0.0937500
        k(   28) = (  -0.2500000  -1.0000000   0.0000000), wk =   0.0468750
        k(   29) = (  -0.5000000  -1.0000000   0.0000000), wk =   0.0234375

     Dense  grid:    16889 G-vectors     FFT dimensions: (  36,  36,  36)

     Estimated max dynamical RAM per process >      12.66 MB

     Initial potential from superposition of free atoms

     starting charge       3.9995, renormalised to       4.0000
     Starting wfcs are    4 randomized atomic wfcs

     total cpu time spent up to now is        0.2 secs

     Self-consistent Calculation

     iteration #  1     ecut=    60.00 Ry     beta= 0.70
     Davidson diagonalization with overlap
     ethr =  1.00E-02,  avg # of iterations =  1.0

     Threshold (ethr) on eigenvalues was too large:
     Diagonalizing with lowered threshold

     Davidson diagonalization with overlap
     ethr =  6.73E-05,  avg # of iterations =  3.1

     total cpu time spent up to now is        0.5 secs

     total energy              =      -7.69837621 Ry
     estimated scf accuracy    <       0.00298348 Ry

     iteration #  2     ecut=    60.00 Ry     beta= 0.70
     Davidson diagonalization with overlap
     ethr =  7.46E-05,  avg # of iterations =  1.1

     total cpu time spent up to now is        0.6 secs

     total energy              =      -7.69860693 Ry
     estimated scf accuracy    <       0.00006232 Ry

     iteration #  3     ecut=    60.00 Ry     beta= 0.70
     Davidson diagonalization with overlap
     ethr =  1.56E-06,  avg # of iterations =  2.3

     total cpu time spent up to now is        0.8 secs

     total energy              =      -7.69862874 Ry
     estimated scf accuracy    <       0.00000157 Ry

     iteration #  4     ecut=    60.00 Ry     beta= 0.70
     Davidson diagonalization with overlap
     ethr =  3.92E-08,  avg # of iterations =  4.6

     total cpu time spent up to now is        1.0 secs

     total energy              =      -7.69863210 Ry
     estimated scf accuracy    <       0.00000009 Ry

     iteration #  5     ecut=    60.00 Ry     beta= 0.70
     Davidson diagonalization with overlap
     ethr =  2.14E-09,  avg # of iterations =  3.3

     total cpu time spent up to now is        1.2 secs

     End of self-consistent calculation

          k = 0.0000 0.0000 0.0000 (  2109 PWs)   bands (ev):

    -6.9628   4.4166

          k =-0.1250 0.1250-0.1250 (  2112 PWs)   bands (ev):

    -6.7791   3.3281

          k =-0.2500 0.2500-0.2500 (  2106 PWs)   bands (ev):

    -6.2568   1.3838

          k =-0.3750 0.3750-0.3750 (  2114 PWs)   bands (ev):

    -5.5357  -0.3452

          k = 0.5000-0.5000 0.5000 (  2120 PWs)   bands (ev):

    -5.1081  -1.1263

          k = 0.0000 0.2500 0.0000 (  2125 PWs)   bands (ev):

    -6.7177   3.5057

          k =-0.1250 0.3750-0.1250 (  2106 PWs)   bands (ev):

    -6.3065   2.0138

          k =-0.2500 0.5000-0.2500 (  2116 PWs)   bands (ev):

    -5.6361   0.2728

          k = 0.6250-0.3750 0.6250 (  2115 PWs)   bands (ev):

    -5.0424  -0.8629

          k = 0.5000-0.2500 0.5000 (  2126 PWs)   bands (ev):

    -5.1931  -0.5967

          k = 0.3750-0.1250 0.3750 (  2117 PWs)   bands (ev):

    -5.8795   0.8264

          k = 0.2500 0.0000 0.2500 (  2111 PWs)   bands (ev):

    -6.4813   2.4394

          k = 0.0000 0.5000 0.0000 (  2085 PWs)   bands (ev):

    -6.0177   1.8645

          k =-0.1250 0.6250-0.1250 (  2114 PWs)   bands (ev):

    -5.4529   0.7601

          k = 0.7500-0.2500 0.7500 (  2123 PWs)   bands (ev):

    -4.8446  -0.2447

          k = 0.6250-0.1250 0.6250 (  2125 PWs)   bands (ev):

    -4.7408  -0.3509

          k = 0.5000 0.0000 0.5000 (  2119 PWs)   bands (ev):

    -5.2705   0.3640

          k = 0.0000 0.7500 0.0000 (  2120 PWs)   bands (ev):

    -5.0319   0.2498

          k = 0.8750-0.1250 0.8750 (  2127 PWs)   bands (ev):

    -4.5682  -0.2695

          k = 0.7500 0.0000 0.7500 (  2129 PWs)   bands (ev):

    -4.4348  -0.0593

          k = 0.0000-1.0000 0.0000 (  2100 PWs)   bands (ev):

    -4.4174  -0.5907

          k =-0.2500 0.5000 0.0000 (  2111 PWs)   bands (ev):

    -5.8143   1.1972

          k = 0.6250-0.3750 0.8750 (  2117 PWs)   bands (ev):

    -5.1520   0.0183

          k = 0.5000-0.2500 0.7500 (  2132 PWs)   bands (ev):

    -4.7759  -0.6131

          k = 0.7500-0.2500 1.0000 (  2120 PWs)   bands (ev):

    -4.9083   0.1851

          k = 0.6250-0.1250 0.8750 (  2132 PWs)   bands (ev):

    -4.5008  -0.0695

          k = 0.5000 0.0000 0.7500 (  2128 PWs)   bands (ev):

    -4.6361   0.1112

          k =-0.2500-1.0000 0.0000 (  2142 PWs)   bands (ev):

    -4.3822  -0.3239

          k =-0.5000-1.0000 0.0000 (  2148 PWs)   bands (ev):

    -4.3457   0.4501

     highest occupied level (ev):     4.4166

!    total energy              =      -7.69863217 Ry
     estimated scf accuracy    <          1.7E-09 Ry

     The total energy is the sum of the following terms:
     one-electron contribution =       1.01716967 Ry
     hartree contribution      =       0.43945857 Ry
     xc contribution           =      -2.00753896 Ry
     ewald contribution        =      -7.14772145 Ry

     convergence has been achieved in   5 iterations

     Writing all to output data dir ./SCRATCH/silicon.save/

     init_run     :      0.12s CPU      0.14s WALL (       1 calls)
     electrons    :      1.03s CPU      1.04s WALL (       1 calls)

     Called by init_run:
     wfcinit      :      0.09s CPU      0.11s WALL (       1 calls)
     potinit      :      0.00s CPU      0.01s WALL (       1 calls)
     hinit0       :      0.02s CPU      0.02s WALL (       1 calls)

     Called by electrons:
     c_bands      :      0.84s CPU      0.86s WALL (       6 calls)
     sum_band     :      0.17s CPU      0.16s WALL (       6 calls)
     v_of_rho     :      0.00s CPU      0.02s WALL (       6 calls)
     mix_rho      :      0.02s CPU      0.01s WALL (       6 calls)

     Called by c_bands:
     init_us_2    :      0.06s CPU      0.06s WALL (     377 calls)
     init_us_2:cp :      0.06s CPU      0.06s WALL (     377 calls)
     cegterg      :      0.78s CPU      0.79s WALL (     174 calls)

     Called by *egterg:
     cdiaghg      :      0.00s CPU      0.01s WALL (     591 calls)
     h_psi        :      0.78s CPU      0.81s WALL (     649 calls)
     g_psi        :      0.00s CPU      0.01s WALL (     446 calls)

     Called by h_psi:
     h_psi:calbec :      0.03s CPU      0.02s WALL (     649 calls)
     vloc_psi     :      0.72s CPU      0.78s WALL (     649 calls)
     add_vuspsi   :      0.00s CPU      0.01s WALL (     649 calls)

     General routines
     calbec       :      0.03s CPU      0.01s WALL (     649 calls)
     fft          :      0.02s CPU      0.01s WALL (      18 calls)
     ffts         :      0.02s CPU      0.00s WALL (       6 calls)
     fftw         :      0.78s CPU      0.79s WALL (    2716 calls)


     PWSCF        :      1.17s CPU      1.21s WALL


   This run was terminated on:   9:51:23  12May2024            

=------------------------------------------------------------------------------=
   JOB DONE.
=------------------------------------------------------------------------------=
