
     Program PWSCF v.7.2 starts on 12May2024 at  9:51:23 

     This program is part of the open-source Quantum ESPRESSO suite
     for quantum simulation of materials; please cite
         "P. Giannozzi et al., J. Phys.:Condens. Matter 21 395502 (2009);
         "P. Giannozzi et al., J. Phys.:Condens. Matter 29 465901 (2017);
         "P. Giannozzi et al., J. Chem. Phys. 152 154105 (2020);
          URL http://www.quantum-espresso.org", 
     in publications or presentations arising from this work. More details at
     http://www.quantum-espresso.org/quote

     Serial version
     9281 MiB available memory on the printing compute node when the environment starts

     Waiting for input...
     Reading input from standard input

     Current dimensions of program PWSCF are:
     Max number of different atomic species (ntypx) = 10
     Max number of k-points (npk) =  40000
     Max angular momentum in pseudopotentials (lmaxx) =  4


     G-vector sticks info
     --------------------
     sticks:   dense  smooth     PW     G-vecs:    dense   smooth      PW
     Sum        1159    1159    349                26229    26229    4279

     Using Slab Decomposition



     bravais-lattice index     =            2
     lattice parameter (alat)  =      10.2631  a.u.
     unit-cell volume          =     270.2564 (a.u.)^3
     number of atoms/cell      =            1
     number of atomic types    =            1
     number of electrons       =         4.00
     number of Kohn-Sham states=            2
     kinetic-energy cutoff     =      80.0000  Ry
     charge density cutoff     =     320.0000  Ry
     scf convergence threshold =      1.0E-08
     mixing beta               =       0.7000
     number of iterations used =            8  plain     mixing
     Exchange-correlation=  SLA  PZ   NOGX NOGC
                           (   1   1   0   0   0   0   0)

     celldm(1)=  10.263102  celldm(2)=   0.000000  celldm(3)=   0.000000
     celldm(4)=   0.000000  celldm(5)=   0.000000  celldm(6)=   0.000000

     crystal axes: (cart. coord. in units of alat)
               a(1) = (  -0.500000   0.000000   0.500000 )  
               a(2) = (   0.000000   0.500000   0.500000 )  
               a(3) = (  -0.500000   0.500000   0.000000 )  

     reciprocal axes: (cart. coord. in units 2 pi/alat)
               b(1) = ( -1.000000 -1.000000  1.000000 )  
               b(2) = (  1.000000  1.000000  1.000000 )  
               b(3) = ( -1.000000  1.000000 -1.000000 )  


     PseudoPot. # 1 for Si read from file:
     /home/paolo/project_labqsm/pseudopotentials/Si.pz-vbc.UPF
     MD5 check sum: dc3b11d017da532b29132e08c0a6883c
     Pseudo is Norm-conserving, Zval =  4.0
     Generated by new atomic code, or converted to UPF format
     Using radial grid of  431 points,  2 beta functions with: 
                l(1) =   0
                l(2) =   1

     atomic species   valence    mass     pseudopotential
        Si             4.00    12.01100     Si( 1.00)

     48 Sym. Ops., with inversion, found



   Cartesian axes

     site n.     atom                  positions (alat units)
         1           Si  tau(   1) = (   0.0000000   0.0000000   0.0000000  )

     number of k points=    29
                       cart. coord. in units 2pi/alat
        k(    1) = (   0.0000000   0.0000000   0.0000000), wk =   0.0039062
        k(    2) = (  -0.1250000   0.1250000  -0.1250000), wk =   0.0312500
        k(    3) = (  -0.2500000   0.2500000  -0.2500000), wk =   0.0312500
        k(    4) = (  -0.3750000   0.3750000  -0.3750000), wk =   0.0312500
        k(    5) = (   0.5000000  -0.5000000   0.5000000), wk =   0.0156250
        k(    6) = (   0.0000000   0.2500000   0.0000000), wk =   0.0234375
        k(    7) = (  -0.1250000   0.3750000  -0.1250000), wk =   0.0937500
        k(    8) = (  -0.2500000   0.5000000  -0.2500000), wk =   0.0937500
        k(    9) = (   0.6250000  -0.3750000   0.6250000), wk =   0.0937500
        k(   10) = (   0.5000000  -0.2500000   0.5000000), wk =   0.0937500
        k(   11) = (   0.3750000  -0.1250000   0.3750000), wk =   0.0937500
        k(   12) = (   0.2500000   0.0000000   0.2500000), wk =   0.0468750
        k(   13) = (   0.0000000   0.5000000   0.0000000), wk =   0.0234375
        k(   14) = (  -0.1250000   0.6250000  -0.1250000), wk =   0.0937500
        k(   15) = (   0.7500000  -0.2500000   0.7500000), wk =   0.0937500
        k(   16) = (   0.6250000  -0.1250000   0.6250000), wk =   0.0937500
        k(   17) = (   0.5000000   0.0000000   0.5000000), wk =   0.0468750
        k(   18) = (   0.0000000   0.7500000   0.0000000), wk =   0.0234375
        k(   19) = (   0.8750000  -0.1250000   0.8750000), wk =   0.0937500
        k(   20) = (   0.7500000   0.0000000   0.7500000), wk =   0.0468750
        k(   21) = (   0.0000000  -1.0000000   0.0000000), wk =   0.0117188
        k(   22) = (  -0.2500000   0.5000000   0.0000000), wk =   0.0937500
        k(   23) = (   0.6250000  -0.3750000   0.8750000), wk =   0.1875000
        k(   24) = (   0.5000000  -0.2500000   0.7500000), wk =   0.0937500
        k(   25) = (   0.7500000  -0.2500000   1.0000000), wk =   0.0937500
        k(   26) = (   0.6250000  -0.1250000   0.8750000), wk =   0.1875000
        k(   27) = (   0.5000000   0.0000000   0.7500000), wk =   0.0937500
        k(   28) = (  -0.2500000  -1.0000000   0.0000000), wk =   0.0468750
        k(   29) = (  -0.5000000  -1.0000000   0.0000000), wk =   0.0234375

     Dense  grid:    26229 G-vectors     FFT dimensions: (  45,  45,  45)

     Estimated max dynamical RAM per process >      20.88 MB

     Initial potential from superposition of free atoms

     starting charge       3.9995, renormalised to       4.0000
     Starting wfcs are    4 randomized atomic wfcs

     total cpu time spent up to now is        0.3 secs

     Self-consistent Calculation

     iteration #  1     ecut=    80.00 Ry     beta= 0.70
     Davidson diagonalization with overlap
     ethr =  1.00E-02,  avg # of iterations =  1.0

     Threshold (ethr) on eigenvalues was too large:
     Diagonalizing with lowered threshold

     Davidson diagonalization with overlap
     ethr =  6.71E-05,  avg # of iterations =  3.0

     total cpu time spent up to now is        1.0 secs

     total energy              =      -7.69837641 Ry
     estimated scf accuracy    <       0.00298518 Ry

     iteration #  2     ecut=    80.00 Ry     beta= 0.70
     Davidson diagonalization with overlap
     ethr =  7.46E-05,  avg # of iterations =  1.1

     total cpu time spent up to now is        1.3 secs

     total energy              =      -7.69861131 Ry
     estimated scf accuracy    <       0.00006260 Ry

     iteration #  3     ecut=    80.00 Ry     beta= 0.70
     Davidson diagonalization with overlap
     ethr =  1.56E-06,  avg # of iterations =  2.5

     total cpu time spent up to now is        1.7 secs

     total energy              =      -7.69863584 Ry
     estimated scf accuracy    <       0.00000162 Ry

     iteration #  4     ecut=    80.00 Ry     beta= 0.70
     Davidson diagonalization with overlap
     ethr =  4.05E-08,  avg # of iterations =  4.4

     total cpu time spent up to now is        2.2 secs

     total energy              =      -7.69863821 Ry
     estimated scf accuracy    <       0.00000008 Ry

     iteration #  5     ecut=    80.00 Ry     beta= 0.70
     Davidson diagonalization with overlap
     ethr =  2.02E-09,  avg # of iterations =  3.7

     total cpu time spent up to now is        2.7 secs

     End of self-consistent calculation

          k = 0.0000 0.0000 0.0000 (  3287 PWs)   bands (ev):

    -6.9630   4.4164

          k =-0.1250 0.1250-0.1250 (  3278 PWs)   bands (ev):

    -6.7792   3.3280

          k =-0.2500 0.2500-0.2500 (  3275 PWs)   bands (ev):

    -6.2570   1.3837

          k =-0.3750 0.3750-0.3750 (  3272 PWs)   bands (ev):

    -5.5359  -0.3453

          k = 0.5000-0.5000 0.5000 (  3274 PWs)   bands (ev):

    -5.1083  -1.1264

          k = 0.0000 0.2500 0.0000 (  3271 PWs)   bands (ev):

    -6.7178   3.5056

          k =-0.1250 0.3750-0.1250 (  3274 PWs)   bands (ev):

    -6.3067   2.0137

          k =-0.2500 0.5000-0.2500 (  3284 PWs)   bands (ev):

    -5.6362   0.2726

          k = 0.6250-0.3750 0.6250 (  3263 PWs)   bands (ev):

    -5.0426  -0.8630

          k = 0.5000-0.2500 0.5000 (  3265 PWs)   bands (ev):

    -5.1933  -0.5968

          k = 0.3750-0.1250 0.3750 (  3273 PWs)   bands (ev):

    -5.8796   0.8263

          k = 0.2500 0.0000 0.2500 (  3279 PWs)   bands (ev):

    -6.4815   2.4393

          k = 0.0000 0.5000 0.0000 (  3263 PWs)   bands (ev):

    -6.0178   1.8643

          k =-0.1250 0.6250-0.1250 (  3268 PWs)   bands (ev):

    -5.4530   0.7600

          k = 0.7500-0.2500 0.7500 (  3259 PWs)   bands (ev):

    -4.8447  -0.2448

          k = 0.6250-0.1250 0.6250 (  3251 PWs)   bands (ev):

    -4.7410  -0.3510

          k = 0.5000 0.0000 0.5000 (  3250 PWs)   bands (ev):

    -5.2707   0.3639

          k = 0.0000 0.7500 0.0000 (  3274 PWs)   bands (ev):

    -5.0321   0.2496

          k = 0.8750-0.1250 0.8750 (  3270 PWs)   bands (ev):

    -4.5684  -0.2696

          k = 0.7500 0.0000 0.7500 (  3258 PWs)   bands (ev):

    -4.4350  -0.0594

          k = 0.0000-1.0000 0.0000 (  3282 PWs)   bands (ev):

    -4.4176  -0.5908

          k =-0.2500 0.5000 0.0000 (  3270 PWs)   bands (ev):

    -5.8145   1.1971

          k = 0.6250-0.3750 0.8750 (  3263 PWs)   bands (ev):

    -5.1522   0.0182

          k = 0.5000-0.2500 0.7500 (  3252 PWs)   bands (ev):

    -4.7761  -0.6132

          k = 0.7500-0.2500 1.0000 (  3264 PWs)   bands (ev):

    -4.9085   0.1850

          k = 0.6250-0.1250 0.8750 (  3264 PWs)   bands (ev):

    -4.5010  -0.0696

          k = 0.5000 0.0000 0.7500 (  3259 PWs)   bands (ev):

    -4.6363   0.1111

          k =-0.2500-1.0000 0.0000 (  3272 PWs)   bands (ev):

    -4.3824  -0.3240

          k =-0.5000-1.0000 0.0000 (  3268 PWs)   bands (ev):

    -4.3459   0.4500

     highest occupied level (ev):     4.4164

!    total energy              =      -7.69863827 Ry
     estimated scf accuracy    <          2.1E-10 Ry

     The total energy is the sum of the following terms:
     one-electron contribution =       1.01715198 Ry
     hartree contribution      =       0.43947529 Ry
     xc contribution           =      -2.00754409 Ry
     ewald contribution        =      -7.14772145 Ry

     convergence has been achieved in   5 iterations

     Writing all to output data dir ./SCRATCH/silicon.save/

     init_run     :      0.25s CPU      0.28s WALL (       1 calls)
     electrons    :      2.31s CPU      2.39s WALL (       1 calls)

     Called by init_run:
     wfcinit      :      0.22s CPU      0.22s WALL (       1 calls)
     potinit      :      0.00s CPU      0.02s WALL (       1 calls)
     hinit0       :      0.02s CPU      0.02s WALL (       1 calls)

     Called by electrons:
     c_bands      :      1.89s CPU      1.99s WALL (       6 calls)
     sum_band     :      0.36s CPU      0.35s WALL (       6 calls)
     v_of_rho     :      0.05s CPU      0.03s WALL (       6 calls)
     mix_rho      :      0.00s CPU      0.02s WALL (       6 calls)

     Called by c_bands:
     init_us_2    :      0.05s CPU      0.09s WALL (     377 calls)
     init_us_2:cp :      0.05s CPU      0.09s WALL (     377 calls)
     cegterg      :      1.84s CPU      1.90s WALL (     174 calls)

     Called by *egterg:
     cdiaghg      :      0.00s CPU      0.01s WALL (     602 calls)
     h_psi        :      1.98s CPU      2.00s WALL (     660 calls)
     g_psi        :      0.03s CPU      0.01s WALL (     457 calls)

     Called by h_psi:
     h_psi:calbec :      0.03s CPU      0.02s WALL (     660 calls)
     vloc_psi     :      1.92s CPU      1.95s WALL (     660 calls)
     add_vuspsi   :      0.03s CPU      0.02s WALL (     660 calls)

     General routines
     calbec       :      0.03s CPU      0.02s WALL (     660 calls)
     fft          :      0.02s CPU      0.02s WALL (      18 calls)
     ffts         :      0.00s CPU      0.01s WALL (       6 calls)
     fftw         :      2.02s CPU      2.03s WALL (    2754 calls)


     PWSCF        :      2.58s CPU      2.69s WALL


   This run was terminated on:   9:51:26  12May2024            

=------------------------------------------------------------------------------=
   JOB DONE.
=------------------------------------------------------------------------------=
