
     Program PWSCF v.7.2 starts on 12May2024 at  9:51:21 

     This program is part of the open-source Quantum ESPRESSO suite
     for quantum simulation of materials; please cite
         "P. Giannozzi et al., J. Phys.:Condens. Matter 21 395502 (2009);
         "P. Giannozzi et al., J. Phys.:Condens. Matter 29 465901 (2017);
         "P. Giannozzi et al., J. Chem. Phys. 152 154105 (2020);
          URL http://www.quantum-espresso.org", 
     in publications or presentations arising from this work. More details at
     http://www.quantum-espresso.org/quote

     Serial version
     9298 MiB available memory on the printing compute node when the environment starts

     Waiting for input...
     Reading input from standard input

     Current dimensions of program PWSCF are:
     Max number of different atomic species (ntypx) = 10
     Max number of k-points (npk) =  40000
     Max angular momentum in pseudopotentials (lmaxx) =  4


     G-vector sticks info
     --------------------
     sticks:   dense  smooth     PW     G-vecs:    dense   smooth      PW
     Sum         583     583    187                 9257     9257    1639

     Using Slab Decomposition



     bravais-lattice index     =            2
     lattice parameter (alat)  =      10.2631  a.u.
     unit-cell volume          =     270.2564 (a.u.)^3
     number of atoms/cell      =            1
     number of atomic types    =            1
     number of electrons       =         4.00
     number of Kohn-Sham states=            2
     kinetic-energy cutoff     =      40.0000  Ry
     charge density cutoff     =     160.0000  Ry
     scf convergence threshold =      1.0E-08
     mixing beta               =       0.7000
     number of iterations used =            8  plain     mixing
     Exchange-correlation=  SLA  PZ   NOGX NOGC
                           (   1   1   0   0   0   0   0)

     celldm(1)=  10.263102  celldm(2)=   0.000000  celldm(3)=   0.000000
     celldm(4)=   0.000000  celldm(5)=   0.000000  celldm(6)=   0.000000

     crystal axes: (cart. coord. in units of alat)
               a(1) = (  -0.500000   0.000000   0.500000 )  
               a(2) = (   0.000000   0.500000   0.500000 )  
               a(3) = (  -0.500000   0.500000   0.000000 )  

     reciprocal axes: (cart. coord. in units 2 pi/alat)
               b(1) = ( -1.000000 -1.000000  1.000000 )  
               b(2) = (  1.000000  1.000000  1.000000 )  
               b(3) = ( -1.000000  1.000000 -1.000000 )  


     PseudoPot. # 1 for Si read from file:
     /home/paolo/project_labqsm/pseudopotentials/Si.pz-vbc.UPF
     MD5 check sum: dc3b11d017da532b29132e08c0a6883c
     Pseudo is Norm-conserving, Zval =  4.0
     Generated by new atomic code, or converted to UPF format
     Using radial grid of  431 points,  2 beta functions with: 
                l(1) =   0
                l(2) =   1

     atomic species   valence    mass     pseudopotential
        Si             4.00    12.01100     Si( 1.00)

     48 Sym. Ops., with inversion, found



   Cartesian axes

     site n.     atom                  positions (alat units)
         1           Si  tau(   1) = (   0.0000000   0.0000000   0.0000000  )

     number of k points=    29
                       cart. coord. in units 2pi/alat
        k(    1) = (   0.0000000   0.0000000   0.0000000), wk =   0.0039062
        k(    2) = (  -0.1250000   0.1250000  -0.1250000), wk =   0.0312500
        k(    3) = (  -0.2500000   0.2500000  -0.2500000), wk =   0.0312500
        k(    4) = (  -0.3750000   0.3750000  -0.3750000), wk =   0.0312500
        k(    5) = (   0.5000000  -0.5000000   0.5000000), wk =   0.0156250
        k(    6) = (   0.0000000   0.2500000   0.0000000), wk =   0.0234375
        k(    7) = (  -0.1250000   0.3750000  -0.1250000), wk =   0.0937500
        k(    8) = (  -0.2500000   0.5000000  -0.2500000), wk =   0.0937500
        k(    9) = (   0.6250000  -0.3750000   0.6250000), wk =   0.0937500
        k(   10) = (   0.5000000  -0.2500000   0.5000000), wk =   0.0937500
        k(   11) = (   0.3750000  -0.1250000   0.3750000), wk =   0.0937500
        k(   12) = (   0.2500000   0.0000000   0.2500000), wk =   0.0468750
        k(   13) = (   0.0000000   0.5000000   0.0000000), wk =   0.0234375
        k(   14) = (  -0.1250000   0.6250000  -0.1250000), wk =   0.0937500
        k(   15) = (   0.7500000  -0.2500000   0.7500000), wk =   0.0937500
        k(   16) = (   0.6250000  -0.1250000   0.6250000), wk =   0.0937500
        k(   17) = (   0.5000000   0.0000000   0.5000000), wk =   0.0468750
        k(   18) = (   0.0000000   0.7500000   0.0000000), wk =   0.0234375
        k(   19) = (   0.8750000  -0.1250000   0.8750000), wk =   0.0937500
        k(   20) = (   0.7500000   0.0000000   0.7500000), wk =   0.0468750
        k(   21) = (   0.0000000  -1.0000000   0.0000000), wk =   0.0117188
        k(   22) = (  -0.2500000   0.5000000   0.0000000), wk =   0.0937500
        k(   23) = (   0.6250000  -0.3750000   0.8750000), wk =   0.1875000
        k(   24) = (   0.5000000  -0.2500000   0.7500000), wk =   0.0937500
        k(   25) = (   0.7500000  -0.2500000   1.0000000), wk =   0.0937500
        k(   26) = (   0.6250000  -0.1250000   0.8750000), wk =   0.1875000
        k(   27) = (   0.5000000   0.0000000   0.7500000), wk =   0.0937500
        k(   28) = (  -0.2500000  -1.0000000   0.0000000), wk =   0.0468750
        k(   29) = (  -0.5000000  -1.0000000   0.0000000), wk =   0.0234375

     Dense  grid:     9257 G-vectors     FFT dimensions: (  30,  30,  30)

     Estimated max dynamical RAM per process >       7.06 MB

     Initial potential from superposition of free atoms

     starting charge       3.9995, renormalised to       4.0000
     Starting wfcs are    4 randomized atomic wfcs

     total cpu time spent up to now is        0.1 secs

     Self-consistent Calculation

     iteration #  1     ecut=    40.00 Ry     beta= 0.70
     Davidson diagonalization with overlap
     ethr =  1.00E-02,  avg # of iterations =  1.0

     Threshold (ethr) on eigenvalues was too large:
     Diagonalizing with lowered threshold

     Davidson diagonalization with overlap
     ethr =  6.86E-05,  avg # of iterations =  3.1

     total cpu time spent up to now is        0.3 secs

     total energy              =      -7.69807891 Ry
     estimated scf accuracy    <       0.00300835 Ry

     iteration #  2     ecut=    40.00 Ry     beta= 0.70
     Davidson diagonalization with overlap
     ethr =  7.52E-05,  avg # of iterations =  1.0

     total cpu time spent up to now is        0.4 secs

     total energy              =      -7.69830913 Ry
     estimated scf accuracy    <       0.00006205 Ry

     iteration #  3     ecut=    40.00 Ry     beta= 0.70
     Davidson diagonalization with overlap
     ethr =  1.55E-06,  avg # of iterations =  2.1

     total cpu time spent up to now is        0.5 secs

     total energy              =      -7.69832916 Ry
     estimated scf accuracy    <       0.00000152 Ry

     iteration #  4     ecut=    40.00 Ry     beta= 0.70
     Davidson diagonalization with overlap
     ethr =  3.79E-08,  avg # of iterations =  4.4

     total cpu time spent up to now is        0.7 secs

     total energy              =      -7.69833174 Ry
     estimated scf accuracy    <       0.00000006 Ry

     iteration #  5     ecut=    40.00 Ry     beta= 0.70
     Davidson diagonalization with overlap
     ethr =  1.49E-09,  avg # of iterations =  3.9

     total cpu time spent up to now is        0.8 secs

     End of self-consistent calculation

          k = 0.0000 0.0000 0.0000 (  1139 PWs)   bands (ev):

    -6.9622   4.4157

          k =-0.1250 0.1250-0.1250 (  1173 PWs)   bands (ev):

    -6.7786   3.3279

          k =-0.2500 0.2500-0.2500 (  1164 PWs)   bands (ev):

    -6.2562   1.3838

          k =-0.3750 0.3750-0.3750 (  1155 PWs)   bands (ev):

    -5.5349  -0.3453

          k = 0.5000-0.5000 0.5000 (  1158 PWs)   bands (ev):

    -5.1072  -1.1266

          k = 0.0000 0.2500 0.0000 (  1163 PWs)   bands (ev):

    -6.7171   3.5056

          k =-0.1250 0.3750-0.1250 (  1160 PWs)   bands (ev):

    -6.3059   2.0138

          k =-0.2500 0.5000-0.2500 (  1151 PWs)   bands (ev):

    -5.6353   0.2727

          k = 0.6250-0.3750 0.6250 (  1160 PWs)   bands (ev):

    -5.0415  -0.8632

          k = 0.5000-0.2500 0.5000 (  1151 PWs)   bands (ev):

    -5.1922  -0.5968

          k = 0.3750-0.1250 0.3750 (  1151 PWs)   bands (ev):

    -5.8787   0.8265

          k = 0.2500 0.0000 0.2500 (  1159 PWs)   bands (ev):

    -6.4807   2.4395

          k = 0.0000 0.5000 0.0000 (  1174 PWs)   bands (ev):

    -6.0171   1.8646

          k =-0.1250 0.6250-0.1250 (  1157 PWs)   bands (ev):

    -5.4521   0.7602

          k = 0.7500-0.2500 0.7500 (  1156 PWs)   bands (ev):

    -4.8436  -0.2449

          k = 0.6250-0.1250 0.6250 (  1150 PWs)   bands (ev):

    -4.7397  -0.3511

          k = 0.5000 0.0000 0.5000 (  1159 PWs)   bands (ev):

    -5.2697   0.3640

          k = 0.0000 0.7500 0.0000 (  1150 PWs)   bands (ev):

    -5.0310   0.2498

          k = 0.8750-0.1250 0.8750 (  1150 PWs)   bands (ev):

    -4.5671  -0.2698

          k = 0.7500 0.0000 0.7500 (  1144 PWs)   bands (ev):

    -4.4335  -0.0596

          k = 0.0000-1.0000 0.0000 (  1162 PWs)   bands (ev):

    -4.4163  -0.5911

          k =-0.2500 0.5000 0.0000 (  1153 PWs)   bands (ev):

    -5.8136   1.1974

          k = 0.6250-0.3750 0.8750 (  1150 PWs)   bands (ev):

    -5.1511   0.0182

          k = 0.5000-0.2500 0.7500 (  1154 PWs)   bands (ev):

    -4.7748  -0.6134

          k = 0.7500-0.2500 1.0000 (  1171 PWs)   bands (ev):

    -4.9075   0.1850

          k = 0.6250-0.1250 0.8750 (  1157 PWs)   bands (ev):

    -4.4997  -0.0698

          k = 0.5000 0.0000 0.7500 (  1153 PWs)   bands (ev):

    -4.6350   0.1110

          k =-0.2500-1.0000 0.0000 (  1156 PWs)   bands (ev):

    -4.3810  -0.3242

          k =-0.5000-1.0000 0.0000 (  1144 PWs)   bands (ev):

    -4.3444   0.4497

     highest occupied level (ev):     4.4157

!    total energy              =      -7.69833181 Ry
     estimated scf accuracy    <          1.4E-10 Ry

     The total energy is the sum of the following terms:
     one-electron contribution =       1.01764194 Ry
     hartree contribution      =       0.43930722 Ry
     xc contribution           =      -2.00755948 Ry
     ewald contribution        =      -7.14772149 Ry

     convergence has been achieved in   5 iterations

     Writing all to output data dir ./SCRATCH/silicon.save/

     init_run     :      0.08s CPU      0.09s WALL (       1 calls)
     electrons    :      0.62s CPU      0.68s WALL (       1 calls)

     Called by init_run:
     wfcinit      :      0.06s CPU      0.07s WALL (       1 calls)
     potinit      :      0.00s CPU      0.01s WALL (       1 calls)
     hinit0       :      0.02s CPU      0.01s WALL (       1 calls)

     Called by electrons:
     c_bands      :      0.53s CPU      0.57s WALL (       6 calls)
     sum_band     :      0.09s CPU      0.10s WALL (       6 calls)
     v_of_rho     :      0.00s CPU      0.01s WALL (       6 calls)
     mix_rho      :      0.00s CPU      0.01s WALL (       6 calls)

     Called by c_bands:
     init_us_2    :      0.00s CPU      0.03s WALL (     377 calls)
     init_us_2:cp :      0.00s CPU      0.03s WALL (     377 calls)
     cegterg      :      0.52s CPU      0.53s WALL (     174 calls)

     Called by *egterg:
     cdiaghg      :      0.02s CPU      0.01s WALL (     598 calls)
     h_psi        :      0.56s CPU      0.53s WALL (     656 calls)
     g_psi        :      0.00s CPU      0.00s WALL (     453 calls)

     Called by h_psi:
     h_psi:calbec :      0.00s CPU      0.01s WALL (     656 calls)
     vloc_psi     :      0.53s CPU      0.51s WALL (     656 calls)
     add_vuspsi   :      0.03s CPU      0.01s WALL (     656 calls)

     General routines
     calbec       :      0.00s CPU      0.01s WALL (     656 calls)
     fft          :      0.00s CPU      0.00s WALL (      18 calls)
     ffts         :      0.00s CPU      0.00s WALL (       6 calls)
     fftw         :      0.58s CPU      0.52s WALL (    2750 calls)


     PWSCF        :      0.72s CPU      0.81s WALL


   This run was terminated on:   9:51:22  12May2024            

=------------------------------------------------------------------------------=
   JOB DONE.
=------------------------------------------------------------------------------=
