
     Program PWSCF v.7.2 starts on 12May2024 at  9:57:31 

     This program is part of the open-source Quantum ESPRESSO suite
     for quantum simulation of materials; please cite
         "P. Giannozzi et al., J. Phys.:Condens. Matter 21 395502 (2009);
         "P. Giannozzi et al., J. Phys.:Condens. Matter 29 465901 (2017);
         "P. Giannozzi et al., J. Chem. Phys. 152 154105 (2020);
          URL http://www.quantum-espresso.org", 
     in publications or presentations arising from this work. More details at
     http://www.quantum-espresso.org/quote

     Serial version
     9570 MiB available memory on the printing compute node when the environment starts

     Waiting for input...
     Reading input from standard input

     Current dimensions of program PWSCF are:
     Max number of different atomic species (ntypx) = 10
     Max number of k-points (npk) =  40000
     Max angular momentum in pseudopotentials (lmaxx) =  4


     G-vector sticks info
     --------------------
     sticks:   dense  smooth     PW     G-vecs:    dense   smooth      PW
     Sum         595     595    199                 9841     9841    1759

     Using Slab Decomposition



     bravais-lattice index     =            2
     lattice parameter (alat)  =      10.4684  a.u.
     unit-cell volume          =     286.7982 (a.u.)^3
     number of atoms/cell      =            1
     number of atomic types    =            1
     number of electrons       =         4.00
     number of Kohn-Sham states=            2
     kinetic-energy cutoff     =      40.0000  Ry
     charge density cutoff     =     160.0000  Ry
     scf convergence threshold =      1.0E-08
     mixing beta               =       0.7000
     number of iterations used =            8  plain     mixing
     Exchange-correlation=  SLA  PZ   NOGX NOGC
                           (   1   1   0   0   0   0   0)

     celldm(1)=  10.468364  celldm(2)=   0.000000  celldm(3)=   0.000000
     celldm(4)=   0.000000  celldm(5)=   0.000000  celldm(6)=   0.000000

     crystal axes: (cart. coord. in units of alat)
               a(1) = (  -0.500000   0.000000   0.500000 )  
               a(2) = (   0.000000   0.500000   0.500000 )  
               a(3) = (  -0.500000   0.500000   0.000000 )  

     reciprocal axes: (cart. coord. in units 2 pi/alat)
               b(1) = ( -1.000000 -1.000000  1.000000 )  
               b(2) = (  1.000000  1.000000  1.000000 )  
               b(3) = ( -1.000000  1.000000 -1.000000 )  


     PseudoPot. # 1 for Si read from file:
     /home/paolo/project_labqsm/pseudopotentials/Si.pz-vbc.UPF
     MD5 check sum: dc3b11d017da532b29132e08c0a6883c
     Pseudo is Norm-conserving, Zval =  4.0
     Generated by new atomic code, or converted to UPF format
     Using radial grid of  431 points,  2 beta functions with: 
                l(1) =   0
                l(2) =   1

     atomic species   valence    mass     pseudopotential
        Si             4.00    12.01100     Si( 1.00)

     48 Sym. Ops., with inversion, found



   Cartesian axes

     site n.     atom                  positions (alat units)
         1           Si  tau(   1) = (   0.0000000   0.0000000   0.0000000  )

     number of k points=    29
                       cart. coord. in units 2pi/alat
        k(    1) = (   0.0000000   0.0000000   0.0000000), wk =   0.0039062
        k(    2) = (  -0.1250000   0.1250000  -0.1250000), wk =   0.0312500
        k(    3) = (  -0.2500000   0.2500000  -0.2500000), wk =   0.0312500
        k(    4) = (  -0.3750000   0.3750000  -0.3750000), wk =   0.0312500
        k(    5) = (   0.5000000  -0.5000000   0.5000000), wk =   0.0156250
        k(    6) = (   0.0000000   0.2500000   0.0000000), wk =   0.0234375
        k(    7) = (  -0.1250000   0.3750000  -0.1250000), wk =   0.0937500
        k(    8) = (  -0.2500000   0.5000000  -0.2500000), wk =   0.0937500
        k(    9) = (   0.6250000  -0.3750000   0.6250000), wk =   0.0937500
        k(   10) = (   0.5000000  -0.2500000   0.5000000), wk =   0.0937500
        k(   11) = (   0.3750000  -0.1250000   0.3750000), wk =   0.0937500
        k(   12) = (   0.2500000   0.0000000   0.2500000), wk =   0.0468750
        k(   13) = (   0.0000000   0.5000000   0.0000000), wk =   0.0234375
        k(   14) = (  -0.1250000   0.6250000  -0.1250000), wk =   0.0937500
        k(   15) = (   0.7500000  -0.2500000   0.7500000), wk =   0.0937500
        k(   16) = (   0.6250000  -0.1250000   0.6250000), wk =   0.0937500
        k(   17) = (   0.5000000   0.0000000   0.5000000), wk =   0.0468750
        k(   18) = (   0.0000000   0.7500000   0.0000000), wk =   0.0234375
        k(   19) = (   0.8750000  -0.1250000   0.8750000), wk =   0.0937500
        k(   20) = (   0.7500000   0.0000000   0.7500000), wk =   0.0468750
        k(   21) = (   0.0000000  -1.0000000   0.0000000), wk =   0.0117188
        k(   22) = (  -0.2500000   0.5000000   0.0000000), wk =   0.0937500
        k(   23) = (   0.6250000  -0.3750000   0.8750000), wk =   0.1875000
        k(   24) = (   0.5000000  -0.2500000   0.7500000), wk =   0.0937500
        k(   25) = (   0.7500000  -0.2500000   1.0000000), wk =   0.0937500
        k(   26) = (   0.6250000  -0.1250000   0.8750000), wk =   0.1875000
        k(   27) = (   0.5000000   0.0000000   0.7500000), wk =   0.0937500
        k(   28) = (  -0.2500000  -1.0000000   0.0000000), wk =   0.0468750
        k(   29) = (  -0.5000000  -1.0000000   0.0000000), wk =   0.0234375

     Dense  grid:     9841 G-vectors     FFT dimensions: (  30,  30,  30)

     Estimated max dynamical RAM per process >       7.38 MB

     Initial potential from superposition of free atoms

     starting charge       3.9995, renormalised to       4.0000
     Starting wfcs are    4 randomized atomic wfcs

     total cpu time spent up to now is        0.1 secs

     Self-consistent Calculation

     iteration #  1     ecut=    40.00 Ry     beta= 0.70
     Davidson diagonalization with overlap
     ethr =  1.00E-02,  avg # of iterations =  1.0

     Threshold (ethr) on eigenvalues was too large:
     Diagonalizing with lowered threshold

     Davidson diagonalization with overlap
     ethr =  7.94E-05,  avg # of iterations =  2.9

     total cpu time spent up to now is        0.3 secs

     total energy              =      -7.68918230 Ry
     estimated scf accuracy    <       0.00354016 Ry

     iteration #  2     ecut=    40.00 Ry     beta= 0.70
     Davidson diagonalization with overlap
     ethr =  8.85E-05,  avg # of iterations =  1.1

     total cpu time spent up to now is        0.4 secs

     total energy              =      -7.68946894 Ry
     estimated scf accuracy    <       0.00006770 Ry

     iteration #  3     ecut=    40.00 Ry     beta= 0.70
     Davidson diagonalization with overlap
     ethr =  1.69E-06,  avg # of iterations =  2.1

     total cpu time spent up to now is        0.5 secs

     total energy              =      -7.68949057 Ry
     estimated scf accuracy    <       0.00000177 Ry

     iteration #  4     ecut=    40.00 Ry     beta= 0.70
     Davidson diagonalization with overlap
     ethr =  4.43E-08,  avg # of iterations =  4.2

     total cpu time spent up to now is        0.6 secs

     total energy              =      -7.68949341 Ry
     estimated scf accuracy    <       0.00000006 Ry

     iteration #  5     ecut=    40.00 Ry     beta= 0.70
     Davidson diagonalization with overlap
     ethr =  1.57E-09,  avg # of iterations =  3.9

     total cpu time spent up to now is        0.8 secs

     End of self-consistent calculation

          k = 0.0000 0.0000 0.0000 (  1243 PWs)   bands (ev):

    -7.1092   3.8309

          k =-0.1250 0.1250-0.1250 (  1242 PWs)   bands (ev):

    -6.9392   2.8166

          k =-0.2500 0.2500-0.2500 (  1227 PWs)   bands (ev):

    -6.4598   1.0056

          k =-0.3750 0.3750-0.3750 (  1227 PWs)   bands (ev):

    -5.8121  -0.5888

          k = 0.5000-0.5000 0.5000 (  1224 PWs)   bands (ev):

    -5.4420  -1.2915

          k = 0.0000 0.2500 0.0000 (  1235 PWs)   bands (ev):

    -6.8824   2.9590

          k =-0.1250 0.3750-0.1250 (  1233 PWs)   bands (ev):

    -6.5045   1.5786

          k =-0.2500 0.5000-0.2500 (  1230 PWs)   bands (ev):

    -5.8985  -0.0241

          k = 0.6250-0.3750 0.6250 (  1217 PWs)   bands (ev):

    -5.3806  -1.0481

          k = 0.5000-0.2500 0.5000 (  1220 PWs)   bands (ev):

    -5.5099  -0.8104

          k = 0.3750-0.1250 0.3750 (  1232 PWs)   bands (ev):

    -6.1170   0.4833

          k = 0.2500 0.0000 0.2500 (  1229 PWs)   bands (ev):

    -6.6649   1.9732

          k = 0.0000 0.5000 0.0000 (  1243 PWs)   bands (ev):

    -6.2402   1.4131

          k =-0.1250 0.6250-0.1250 (  1236 PWs)   bands (ev):

    -5.7312   0.4042

          k = 0.7500-0.2500 0.7500 (  1225 PWs)   bands (ev):

    -5.2007  -0.4827

          k = 0.6250-0.1250 0.6250 (  1217 PWs)   bands (ev):

    -5.1143  -0.5638

          k = 0.5000 0.0000 0.5000 (  1211 PWs)   bands (ev):

    -5.5726   0.0557

          k = 0.0000 0.7500 0.0000 (  1230 PWs)   bands (ev):

    -5.3573  -0.0611

          k = 0.8750-0.1250 0.8750 (  1223 PWs)   bands (ev):

    -4.9594  -0.5093

          k = 0.7500 0.0000 0.7500 (  1214 PWs)   bands (ev):

    -4.8505  -0.2908

          k = 0.0000-1.0000 0.0000 (  1234 PWs)   bands (ev):

    -4.8326  -0.7939

          k =-0.2500 0.5000 0.0000 (  1228 PWs)   bands (ev):

    -6.0568   0.8088

          k = 0.6250-0.3750 0.8750 (  1228 PWs)   bands (ev):

    -5.4686  -0.2519

          k = 0.5000-0.2500 0.7500 (  1218 PWs)   bands (ev):

    -5.1465  -0.8061

          k = 0.7500-0.2500 1.0000 (  1230 PWs)   bands (ev):

    -5.2518  -0.1105

          k = 0.6250-0.1250 0.8750 (  1217 PWs)   bands (ev):

    -4.9058  -0.3034

          k = 0.5000 0.0000 0.7500 (  1216 PWs)   bands (ev):

    -5.0215  -0.1437

          k =-0.2500-1.0000 0.0000 (  1218 PWs)   bands (ev):

    -4.8039  -0.5412

          k =-0.5000-1.0000 0.0000 (  1216 PWs)   bands (ev):

    -4.7745   0.1891

     highest occupied level (ev):     3.8309

!    total energy              =      -7.68949348 Ry
     estimated scf accuracy    <          9.7E-11 Ry

     The total energy is the sum of the following terms:
     one-electron contribution =       0.83379038 Ry
     hartree contribution      =       0.47679341 Ry
     xc contribution           =      -1.99250717 Ry
     ewald contribution        =      -7.00757009 Ry

     convergence has been achieved in   5 iterations

     Writing all to output data dir ./SCRATCH/silicon.save/

     init_run     :      0.09s CPU      0.09s WALL (       1 calls)
     electrons    :      0.64s CPU      0.66s WALL (       1 calls)

     Called by init_run:
     wfcinit      :      0.06s CPU      0.07s WALL (       1 calls)
     potinit      :      0.02s CPU      0.00s WALL (       1 calls)
     hinit0       :      0.00s CPU      0.01s WALL (       1 calls)

     Called by electrons:
     c_bands      :      0.55s CPU      0.55s WALL (       6 calls)
     sum_band     :      0.09s CPU      0.10s WALL (       6 calls)
     v_of_rho     :      0.00s CPU      0.01s WALL (       6 calls)
     mix_rho      :      0.00s CPU      0.01s WALL (       6 calls)

     Called by c_bands:
     init_us_2    :      0.03s CPU      0.04s WALL (     377 calls)
     init_us_2:cp :      0.03s CPU      0.03s WALL (     377 calls)
     cegterg      :      0.53s CPU      0.50s WALL (     174 calls)

     Called by *egterg:
     cdiaghg      :      0.02s CPU      0.00s WALL (     587 calls)
     h_psi        :      0.53s CPU      0.51s WALL (     645 calls)
     g_psi        :      0.00s CPU      0.00s WALL (     442 calls)

     Called by h_psi:
     h_psi:calbec :      0.03s CPU      0.01s WALL (     645 calls)
     vloc_psi     :      0.50s CPU      0.49s WALL (     645 calls)
     add_vuspsi   :      0.00s CPU      0.01s WALL (     645 calls)

     General routines
     calbec       :      0.02s CPU      0.01s WALL (     645 calls)
     fft          :      0.00s CPU      0.00s WALL (      18 calls)
     ffts         :      0.00s CPU      0.00s WALL (       6 calls)
     fftw         :      0.55s CPU      0.50s WALL (    2718 calls)


     PWSCF        :      0.73s CPU      0.77s WALL


   This run was terminated on:   9:57:32  12May2024            

=------------------------------------------------------------------------------=
   JOB DONE.
=------------------------------------------------------------------------------=
