
     Program PWSCF v.7.2 starts on 12May2024 at  9:51:29 

     This program is part of the open-source Quantum ESPRESSO suite
     for quantum simulation of materials; please cite
         "P. Giannozzi et al., J. Phys.:Condens. Matter 21 395502 (2009);
         "P. Giannozzi et al., J. Phys.:Condens. Matter 29 465901 (2017);
         "P. Giannozzi et al., J. Chem. Phys. 152 154105 (2020);
          URL http://www.quantum-espresso.org", 
     in publications or presentations arising from this work. More details at
     http://www.quantum-espresso.org/quote

     Serial version
     9275 MiB available memory on the printing compute node when the environment starts

     Waiting for input...
     Reading input from standard input

     Current dimensions of program PWSCF are:
     Max number of different atomic species (ntypx) = 10
     Max number of k-points (npk) =  40000
     Max angular momentum in pseudopotentials (lmaxx) =  4


     G-vector sticks info
     --------------------
     sticks:   dense  smooth     PW     G-vecs:    dense   smooth      PW
     Sum        1735    1735    499                47855    47855    7391

     Using Slab Decomposition



     bravais-lattice index     =            2
     lattice parameter (alat)  =      10.2631  a.u.
     unit-cell volume          =     270.2564 (a.u.)^3
     number of atoms/cell      =            1
     number of atomic types    =            1
     number of electrons       =         4.00
     number of Kohn-Sham states=            2
     kinetic-energy cutoff     =     120.0000  Ry
     charge density cutoff     =     480.0000  Ry
     scf convergence threshold =      1.0E-08
     mixing beta               =       0.7000
     number of iterations used =            8  plain     mixing
     Exchange-correlation=  SLA  PZ   NOGX NOGC
                           (   1   1   0   0   0   0   0)

     celldm(1)=  10.263102  celldm(2)=   0.000000  celldm(3)=   0.000000
     celldm(4)=   0.000000  celldm(5)=   0.000000  celldm(6)=   0.000000

     crystal axes: (cart. coord. in units of alat)
               a(1) = (  -0.500000   0.000000   0.500000 )  
               a(2) = (   0.000000   0.500000   0.500000 )  
               a(3) = (  -0.500000   0.500000   0.000000 )  

     reciprocal axes: (cart. coord. in units 2 pi/alat)
               b(1) = ( -1.000000 -1.000000  1.000000 )  
               b(2) = (  1.000000  1.000000  1.000000 )  
               b(3) = ( -1.000000  1.000000 -1.000000 )  


     PseudoPot. # 1 for Si read from file:
     /home/paolo/project_labqsm/pseudopotentials/Si.pz-vbc.UPF
     MD5 check sum: dc3b11d017da532b29132e08c0a6883c
     Pseudo is Norm-conserving, Zval =  4.0
     Generated by new atomic code, or converted to UPF format
     Using radial grid of  431 points,  2 beta functions with: 
                l(1) =   0
                l(2) =   1

     atomic species   valence    mass     pseudopotential
        Si             4.00    12.01100     Si( 1.00)

     48 Sym. Ops., with inversion, found



   Cartesian axes

     site n.     atom                  positions (alat units)
         1           Si  tau(   1) = (   0.0000000   0.0000000   0.0000000  )

     number of k points=    29
                       cart. coord. in units 2pi/alat
        k(    1) = (   0.0000000   0.0000000   0.0000000), wk =   0.0039062
        k(    2) = (  -0.1250000   0.1250000  -0.1250000), wk =   0.0312500
        k(    3) = (  -0.2500000   0.2500000  -0.2500000), wk =   0.0312500
        k(    4) = (  -0.3750000   0.3750000  -0.3750000), wk =   0.0312500
        k(    5) = (   0.5000000  -0.5000000   0.5000000), wk =   0.0156250
        k(    6) = (   0.0000000   0.2500000   0.0000000), wk =   0.0234375
        k(    7) = (  -0.1250000   0.3750000  -0.1250000), wk =   0.0937500
        k(    8) = (  -0.2500000   0.5000000  -0.2500000), wk =   0.0937500
        k(    9) = (   0.6250000  -0.3750000   0.6250000), wk =   0.0937500
        k(   10) = (   0.5000000  -0.2500000   0.5000000), wk =   0.0937500
        k(   11) = (   0.3750000  -0.1250000   0.3750000), wk =   0.0937500
        k(   12) = (   0.2500000   0.0000000   0.2500000), wk =   0.0468750
        k(   13) = (   0.0000000   0.5000000   0.0000000), wk =   0.0234375
        k(   14) = (  -0.1250000   0.6250000  -0.1250000), wk =   0.0937500
        k(   15) = (   0.7500000  -0.2500000   0.7500000), wk =   0.0937500
        k(   16) = (   0.6250000  -0.1250000   0.6250000), wk =   0.0937500
        k(   17) = (   0.5000000   0.0000000   0.5000000), wk =   0.0468750
        k(   18) = (   0.0000000   0.7500000   0.0000000), wk =   0.0234375
        k(   19) = (   0.8750000  -0.1250000   0.8750000), wk =   0.0937500
        k(   20) = (   0.7500000   0.0000000   0.7500000), wk =   0.0468750
        k(   21) = (   0.0000000  -1.0000000   0.0000000), wk =   0.0117188
        k(   22) = (  -0.2500000   0.5000000   0.0000000), wk =   0.0937500
        k(   23) = (   0.6250000  -0.3750000   0.8750000), wk =   0.1875000
        k(   24) = (   0.5000000  -0.2500000   0.7500000), wk =   0.0937500
        k(   25) = (   0.7500000  -0.2500000   1.0000000), wk =   0.0937500
        k(   26) = (   0.6250000  -0.1250000   0.8750000), wk =   0.1875000
        k(   27) = (   0.5000000   0.0000000   0.7500000), wk =   0.0937500
        k(   28) = (  -0.2500000  -1.0000000   0.0000000), wk =   0.0468750
        k(   29) = (  -0.5000000  -1.0000000   0.0000000), wk =   0.0234375

     Dense  grid:    47855 G-vectors     FFT dimensions: (  54,  54,  54)

     Estimated max dynamical RAM per process >      37.45 MB

     Initial potential from superposition of free atoms

     starting charge       3.9995, renormalised to       4.0000
     Starting wfcs are    4 randomized atomic wfcs

     total cpu time spent up to now is        0.5 secs

     Self-consistent Calculation

     iteration #  1     ecut=   120.00 Ry     beta= 0.70
     Davidson diagonalization with overlap
     ethr =  1.00E-02,  avg # of iterations =  1.0

     Threshold (ethr) on eigenvalues was too large:
     Diagonalizing with lowered threshold

     Davidson diagonalization with overlap
     ethr =  6.81E-05,  avg # of iterations =  3.1

     total cpu time spent up to now is        1.9 secs

     total energy              =      -7.69837956 Ry
     estimated scf accuracy    <       0.00298460 Ry

     iteration #  2     ecut=   120.00 Ry     beta= 0.70
     Davidson diagonalization with overlap
     ethr =  7.46E-05,  avg # of iterations =  1.1

     total cpu time spent up to now is        2.4 secs

     total energy              =      -7.69861275 Ry
     estimated scf accuracy    <       0.00006256 Ry

     iteration #  3     ecut=   120.00 Ry     beta= 0.70
     Davidson diagonalization with overlap
     ethr =  1.56E-06,  avg # of iterations =  2.2

     total cpu time spent up to now is        3.1 secs

     total energy              =      -7.69863513 Ry
     estimated scf accuracy    <       0.00000161 Ry

     iteration #  4     ecut=   120.00 Ry     beta= 0.70
     Davidson diagonalization with overlap
     ethr =  4.03E-08,  avg # of iterations =  4.9

     total cpu time spent up to now is        4.1 secs

     total energy              =      -7.69863851 Ry
     estimated scf accuracy    <       0.00000009 Ry

     iteration #  5     ecut=   120.00 Ry     beta= 0.70
     Davidson diagonalization with overlap
     ethr =  2.33E-09,  avg # of iterations =  3.1

     total cpu time spent up to now is        4.8 secs

     End of self-consistent calculation

          k = 0.0000 0.0000 0.0000 (  5985 PWs)   bands (ev):

    -6.9629   4.4165

          k =-0.1250 0.1250-0.1250 (  6000 PWs)   bands (ev):

    -6.7791   3.3281

          k =-0.2500 0.2500-0.2500 (  6006 PWs)   bands (ev):

    -6.2569   1.3838

          k =-0.3750 0.3750-0.3750 (  6020 PWs)   bands (ev):

    -5.5357  -0.3452

          k = 0.5000-0.5000 0.5000 (  5996 PWs)   bands (ev):

    -5.1082  -1.1263

          k = 0.0000 0.2500 0.0000 (  6022 PWs)   bands (ev):

    -6.7177   3.5057

          k =-0.1250 0.3750-0.1250 (  6010 PWs)   bands (ev):

    -6.3066   2.0138

          k =-0.2500 0.5000-0.2500 (  5993 PWs)   bands (ev):

    -5.6361   0.2727

          k = 0.6250-0.3750 0.6250 (  5998 PWs)   bands (ev):

    -5.0425  -0.8629

          k = 0.5000-0.2500 0.5000 (  6014 PWs)   bands (ev):

    -5.1932  -0.5967

          k = 0.3750-0.1250 0.3750 (  6008 PWs)   bands (ev):

    -5.8795   0.8264

          k = 0.2500 0.0000 0.2500 (  6015 PWs)   bands (ev):

    -6.4814   2.4394

          k = 0.0000 0.5000 0.0000 (  5982 PWs)   bands (ev):

    -6.0177   1.8644

          k =-0.1250 0.6250-0.1250 (  6010 PWs)   bands (ev):

    -5.4529   0.7601

          k = 0.7500-0.2500 0.7500 (  5990 PWs)   bands (ev):

    -4.8446  -0.2448

          k = 0.6250-0.1250 0.6250 (  5983 PWs)   bands (ev):

    -4.7409  -0.3509

          k = 0.5000 0.0000 0.5000 (  5995 PWs)   bands (ev):

    -5.2705   0.3640

          k = 0.0000 0.7500 0.0000 (  6010 PWs)   bands (ev):

    -5.0320   0.2497

          k = 0.8750-0.1250 0.8750 (  5985 PWs)   bands (ev):

    -4.5683  -0.2696

          k = 0.7500 0.0000 0.7500 (  5990 PWs)   bands (ev):

    -4.4348  -0.0593

          k = 0.0000-1.0000 0.0000 (  5962 PWs)   bands (ev):

    -4.4175  -0.5907

          k =-0.2500 0.5000 0.0000 (  6005 PWs)   bands (ev):

    -5.8144   1.1972

          k = 0.6250-0.3750 0.8750 (  5998 PWs)   bands (ev):

    -5.1521   0.0183

          k = 0.5000-0.2500 0.7500 (  5984 PWs)   bands (ev):

    -4.7759  -0.6131

          k = 0.7500-0.2500 1.0000 (  6003 PWs)   bands (ev):

    -4.9084   0.1851

          k = 0.6250-0.1250 0.8750 (  5995 PWs)   bands (ev):

    -4.5009  -0.0695

          k = 0.5000 0.0000 0.7500 (  5985 PWs)   bands (ev):

    -4.6361   0.1112

          k =-0.2500-1.0000 0.0000 (  5994 PWs)   bands (ev):

    -4.3822  -0.3239

          k =-0.5000-1.0000 0.0000 (  6008 PWs)   bands (ev):

    -4.3457   0.4500

     highest occupied level (ev):     4.4165

!    total energy              =      -7.69863856 Ry
     estimated scf accuracy    <          7.7E-10 Ry

     The total energy is the sum of the following terms:
     one-electron contribution =       1.01715726 Ry
     hartree contribution      =       0.43946492 Ry
     xc contribution           =      -2.00753929 Ry
     ewald contribution        =      -7.14772145 Ry

     convergence has been achieved in   5 iterations

     Writing all to output data dir ./SCRATCH/silicon.save/

     init_run     :      0.53s CPU      0.53s WALL (       1 calls)
     electrons    :      4.20s CPU      4.28s WALL (       1 calls)

     Called by init_run:
     wfcinit      :      0.42s CPU      0.43s WALL (       1 calls)
     potinit      :      0.03s CPU      0.03s WALL (       1 calls)
     hinit0       :      0.03s CPU      0.03s WALL (       1 calls)

     Called by electrons:
     c_bands      :      3.48s CPU      3.54s WALL (       6 calls)
     sum_band     :      0.66s CPU      0.66s WALL (       6 calls)
     v_of_rho     :      0.05s CPU      0.05s WALL (       6 calls)
     mix_rho      :      0.02s CPU      0.03s WALL (       6 calls)

     Called by c_bands:
     init_us_2    :      0.12s CPU      0.17s WALL (     377 calls)
     init_us_2:cp :      0.12s CPU      0.17s WALL (     377 calls)
     cegterg      :      3.45s CPU      3.40s WALL (     174 calls)

     Called by *egterg:
     cdiaghg      :      0.02s CPU      0.01s WALL (     589 calls)
     h_psi        :      3.66s CPU      3.61s WALL (     647 calls)
     g_psi        :      0.02s CPU      0.01s WALL (     444 calls)

     Called by h_psi:
     h_psi:calbec :      0.02s CPU      0.04s WALL (     647 calls)
     vloc_psi     :      3.64s CPU      3.53s WALL (     647 calls)
     add_vuspsi   :      0.00s CPU      0.03s WALL (     647 calls)

     General routines
     calbec       :      0.02s CPU      0.04s WALL (     647 calls)
     fft          :      0.06s CPU      0.04s WALL (      18 calls)
     ffts         :      0.02s CPU      0.01s WALL (       6 calls)
     fftw         :      3.86s CPU      3.71s WALL (    2720 calls)


     PWSCF        :      4.73s CPU      4.84s WALL


   This run was terminated on:   9:51:34  12May2024            

=------------------------------------------------------------------------------=
   JOB DONE.
=------------------------------------------------------------------------------=
