
     Program PWSCF v.7.2 starts on 25May2024 at 12:56:24 

     This program is part of the open-source Quantum ESPRESSO suite
     for quantum simulation of materials; please cite
         "P. Giannozzi et al., J. Phys.:Condens. Matter 21 395502 (2009);
         "P. Giannozzi et al., J. Phys.:Condens. Matter 29 465901 (2017);
         "P. Giannozzi et al., J. Chem. Phys. 152 154105 (2020);
          URL http://www.quantum-espresso.org", 
     in publications or presentations arising from this work. More details at
     http://www.quantum-espresso.org/quote

     Serial version
     8984 MiB available memory on the printing compute node when the environment starts

     Waiting for input...
     Reading input from standard input

     Current dimensions of program PWSCF are:
     Max number of different atomic species (ntypx) = 10
     Max number of k-points (npk) =  40000
     Max angular momentum in pseudopotentials (lmaxx) =  4

     Atomic positions and unit cell read from directory:
     ./SCRATCH/gallium_arsenide.save/



     G-vector sticks info
     --------------------
     sticks:   dense  smooth     PW     G-vecs:    dense   smooth      PW
     Sum        1213    1213    349                27725    27725    4285

     Using Slab Decomposition



     bravais-lattice index     =            2
     lattice parameter (alat)  =      10.4818  a.u.
     unit-cell volume          =     287.9059 (a.u.)^3
     number of atoms/cell      =            2
     number of atomic types    =            2
     number of electrons       =         8.00
     number of Kohn-Sham states=           10
     kinetic-energy cutoff     =      80.0000  Ry
     charge density cutoff     =     320.0000  Ry
     Exchange-correlation= SLA  PZ   NOGX NOGC
                           (   1   1   0   0   0   0   0)

     celldm(1)=  10.583136  celldm(2)=   0.000000  celldm(3)=   0.000000
     celldm(4)=   0.000000  celldm(5)=   0.000000  celldm(6)=   0.000000

     crystal axes: (cart. coord. in units of alat)
               a(1) = (  -0.500000   0.000000   0.500000 )  
               a(2) = (   0.000000   0.500000   0.500000 )  
               a(3) = (  -0.500000   0.500000   0.000000 )  

     reciprocal axes: (cart. coord. in units 2 pi/alat)
               b(1) = ( -1.000000 -1.000000  1.000000 )  
               b(2) = (  1.000000  1.000000  1.000000 )  
               b(3) = ( -1.000000  1.000000 -1.000000 )  


     PseudoPot. # 1 for Ga read from file:
     /home/paolo/project_labqsm/pseudopotentials/Ga.pz-bhs.UPF
     MD5 check sum: 09b06f4702dea281feaf053846378b49
     Pseudo is Norm-conserving, Zval =  3.0
     Generated by new atomic code, or converted to UPF format
     Using radial grid of  523 points,  2 beta functions with: 
                l(1) =   0
                l(2) =   1

     PseudoPot. # 2 for As read from file:
     /home/paolo/project_labqsm/pseudopotentials/As.pz-bhs.UPF
     MD5 check sum: d67708448008dff3ec15a9356ed645c7
     Pseudo is Norm-conserving, Zval =  5.0
     Generated by new atomic code, or converted to UPF format
     Using radial grid of  525 points,  2 beta functions with: 
                l(1) =   0
                l(2) =   1

     atomic species   valence    mass     pseudopotential
        Ga             3.00    69.72300     Ga( 1.00)
        As             5.00    74.92200     As( 1.00)

     24 Sym. Ops. (no inversion) found


                                    s                        frac. trans.

      isym =  1     identity                                     

 cryst.   s( 1) = (     1          0          0      )
                  (     0          1          0      )
                  (     0          0          1      )

 cart.    s( 1) = (  1.0000000  0.0000000  0.0000000 )
                  (  0.0000000  1.0000000  0.0000000 )
                  (  0.0000000  0.0000000  1.0000000 )


      isym =  2     180 deg rotation - cart. axis [0,0,1]        

 cryst.   s( 2) = (     0          1         -1      )
                  (     1          0         -1      )
                  (     0          0         -1      )

 cart.    s( 2) = ( -1.0000000  0.0000000  0.0000000 )
                  (  0.0000000 -1.0000000  0.0000000 )
                  (  0.0000000  0.0000000  1.0000000 )


      isym =  3     180 deg rotation - cart. axis [0,1,0]        

 cryst.   s( 3) = (    -1          0          0      )
                  (    -1          0          1      )
                  (    -1          1          0      )

 cart.    s( 3) = ( -1.0000000  0.0000000  0.0000000 )
                  (  0.0000000  1.0000000  0.0000000 )
                  (  0.0000000  0.0000000 -1.0000000 )


      isym =  4     180 deg rotation - cart. axis [1,0,0]        

 cryst.   s( 4) = (     0         -1          1      )
                  (     0         -1          0      )
                  (     1         -1          0      )

 cart.    s( 4) = (  1.0000000  0.0000000  0.0000000 )
                  (  0.0000000 -1.0000000  0.0000000 )
                  (  0.0000000  0.0000000 -1.0000000 )


      isym =  5     120 deg rotation - cart. axis [-1,-1,-1]     

 cryst.   s( 5) = (    -1          0          1      )
                  (    -1          1          0      )
                  (    -1          0          0      )

 cart.    s( 5) = (  0.0000000  1.0000000  0.0000000 )
                  (  0.0000000  0.0000000  1.0000000 )
                  (  1.0000000  0.0000000  0.0000000 )


      isym =  6     120 deg rotation - cart. axis [-1,1,1]       

 cryst.   s( 6) = (     0          1          0      )
                  (     0          0          1      )
                  (     1          0          0      )

 cart.    s( 6) = (  0.0000000 -1.0000000  0.0000000 )
                  (  0.0000000  0.0000000  1.0000000 )
                  ( -1.0000000  0.0000000  0.0000000 )


      isym =  7     120 deg rotation - cart. axis [1,1,-1]       

 cryst.   s( 7) = (     1          0         -1      )
                  (     0          0         -1      )
                  (     0          1         -1      )

 cart.    s( 7) = (  0.0000000  1.0000000  0.0000000 )
                  (  0.0000000  0.0000000 -1.0000000 )
                  ( -1.0000000  0.0000000  0.0000000 )


      isym =  8     120 deg rotation - cart. axis [1,-1,1]       

 cryst.   s( 8) = (     0         -1          0      )
                  (     1         -1          0      )
                  (     0         -1          1      )

 cart.    s( 8) = (  0.0000000 -1.0000000  0.0000000 )
                  (  0.0000000  0.0000000 -1.0000000 )
                  (  1.0000000  0.0000000  0.0000000 )


      isym =  9     120 deg rotation - cart. axis [1,1,1]        

 cryst.   s( 9) = (     0          0         -1      )
                  (     0          1         -1      )
                  (     1          0         -1      )

 cart.    s( 9) = (  0.0000000  0.0000000  1.0000000 )
                  (  1.0000000  0.0000000  0.0000000 )
                  (  0.0000000  1.0000000  0.0000000 )


      isym = 10     120 deg rotation - cart. axis [-1,1,-1]      

 cryst.   s(10) = (    -1          1          0      )
                  (    -1          0          0      )
                  (    -1          0          1      )

 cart.    s(10) = (  0.0000000  0.0000000  1.0000000 )
                  ( -1.0000000  0.0000000  0.0000000 )
                  (  0.0000000 -1.0000000  0.0000000 )


      isym = 11     120 deg rotation - cart. axis [1,-1,-1]      

 cryst.   s(11) = (     0          0          1      )
                  (     1          0          0      )
                  (     0          1          0      )

 cart.    s(11) = (  0.0000000  0.0000000 -1.0000000 )
                  ( -1.0000000  0.0000000  0.0000000 )
                  (  0.0000000  1.0000000  0.0000000 )


      isym = 12     120 deg rotation - cart. axis [-1,-1,1]      

 cryst.   s(12) = (     1         -1          0      )
                  (     0         -1          1      )
                  (     0         -1          0      )

 cart.    s(12) = (  0.0000000  0.0000000 -1.0000000 )
                  (  1.0000000  0.0000000  0.0000000 )
                  (  0.0000000 -1.0000000  0.0000000 )


      isym = 13     inv. 180 deg rotation - cart. axis [1,1,0]   

 cryst.   s(13) = (     0          1          0      )
                  (     1          0          0      )
                  (     0          0          1      )

 cart.    s(13) = (  0.0000000 -1.0000000  0.0000000 )
                  ( -1.0000000  0.0000000  0.0000000 )
                  (  0.0000000  0.0000000  1.0000000 )


      isym = 14     inv. 180 deg rotation - cart. axis [1,-1,0]  

 cryst.   s(14) = (     1          0         -1      )
                  (     0          1         -1      )
                  (     0          0         -1      )

 cart.    s(14) = (  0.0000000  1.0000000  0.0000000 )
                  (  1.0000000  0.0000000  0.0000000 )
                  (  0.0000000  0.0000000  1.0000000 )


      isym = 15     inv.  90 deg rotation - cart. axis [0,0,-1]  

 cryst.   s(15) = (     0         -1          0      )
                  (     0         -1          1      )
                  (     1         -1          0      )

 cart.    s(15) = (  0.0000000 -1.0000000  0.0000000 )
                  (  1.0000000  0.0000000  0.0000000 )
                  (  0.0000000  0.0000000 -1.0000000 )


      isym = 16     inv.  90 deg rotation - cart. axis [0,0,1]   

 cryst.   s(16) = (    -1          0          1      )
                  (    -1          0          0      )
                  (    -1          1          0      )

 cart.    s(16) = (  0.0000000  1.0000000  0.0000000 )
                  ( -1.0000000  0.0000000  0.0000000 )
                  (  0.0000000  0.0000000 -1.0000000 )


      isym = 17     inv. 180 deg rotation - cart. axis [1,0,1]   

 cryst.   s(17) = (     1          0          0      )
                  (     0          0          1      )
                  (     0          1          0      )

 cart.    s(17) = (  0.0000000  0.0000000 -1.0000000 )
                  (  0.0000000  1.0000000  0.0000000 )
                  ( -1.0000000  0.0000000  0.0000000 )


      isym = 18     inv. 180 deg rotation - cart. axis [-1,0,1]  

 cryst.   s(18) = (    -1          0          0      )
                  (    -1          1          0      )
                  (    -1          0          1      )

 cart.    s(18) = (  0.0000000  0.0000000  1.0000000 )
                  (  0.0000000  1.0000000  0.0000000 )
                  (  1.0000000  0.0000000  0.0000000 )


      isym = 19     inv.  90 deg rotation - cart. axis [0,1,0]   

 cryst.   s(19) = (     0         -1          1      )
                  (     1         -1          0      )
                  (     0         -1          0      )

 cart.    s(19) = (  0.0000000  0.0000000 -1.0000000 )
                  (  0.0000000 -1.0000000  0.0000000 )
                  (  1.0000000  0.0000000  0.0000000 )


      isym = 20     inv.  90 deg rotation - cart. axis [0,-1,0]  

 cryst.   s(20) = (     0          1         -1      )
                  (     0          0         -1      )
                  (     1          0         -1      )

 cart.    s(20) = (  0.0000000  0.0000000  1.0000000 )
                  (  0.0000000 -1.0000000  0.0000000 )
                  ( -1.0000000  0.0000000  0.0000000 )


      isym = 21     inv. 180 deg rotation - cart. axis [0,1,1]   

 cryst.   s(21) = (     1         -1          0      )
                  (     0         -1          0      )
                  (     0         -1          1      )

 cart.    s(21) = (  1.0000000  0.0000000  0.0000000 )
                  (  0.0000000  0.0000000 -1.0000000 )
                  (  0.0000000 -1.0000000  0.0000000 )


      isym = 22     inv. 180 deg rotation - cart. axis [0,1,-1]  

 cryst.   s(22) = (     0          0          1      )
                  (     0          1          0      )
                  (     1          0          0      )

 cart.    s(22) = (  1.0000000  0.0000000  0.0000000 )
                  (  0.0000000  0.0000000  1.0000000 )
                  (  0.0000000  1.0000000  0.0000000 )


      isym = 23     inv.  90 deg rotation - cart. axis [-1,0,0]  

 cryst.   s(23) = (     0          0         -1      )
                  (     1          0         -1      )
                  (     0          1         -1      )

 cart.    s(23) = ( -1.0000000  0.0000000  0.0000000 )
                  (  0.0000000  0.0000000 -1.0000000 )
                  (  0.0000000  1.0000000  0.0000000 )


      isym = 24     inv.  90 deg rotation - cart. axis [1,0,0]   

 cryst.   s(24) = (    -1          1          0      )
                  (    -1          0          1      )
                  (    -1          0          0      )

 cart.    s(24) = ( -1.0000000  0.0000000  0.0000000 )
                  (  0.0000000  0.0000000  1.0000000 )
                  (  0.0000000 -1.0000000  0.0000000 )


     point group T_d (-43m) 
     there are  5 classes
     the character table:

       E     8C3   3C2   6S4   6s_d 
A_1    1.00  1.00  1.00  1.00  1.00
A_2    1.00  1.00  1.00 -1.00 -1.00
E      2.00 -1.00  2.00  0.00  0.00
T_1    3.00  0.00 -1.00  1.00 -1.00
T_2    3.00  0.00 -1.00 -1.00  1.00

     the symmetry operations in each class and the name of the first element:

     E        1
          identity                                               
     8C3      5    7    8    6   12    9   10   11
          120 deg rotation - cart. axis [-1,-1,-1]               
     3C2      2    3    4
          180 deg rotation - cart. axis [0,0,1]                  
     6S4     15   16   20   19   23   24
          inv.  90 deg rotation - cart. axis [0,0,-1]            
     6s_d    13   14   17   18   21   22
          inv. 180 deg rotation - cart. axis [1,1,0]             

   Cartesian axes

     site n.     atom                  positions (alat units)
         1           Ga  tau(   1) = (   0.0000000   0.0000000   0.0000000  )
         2           As  tau(   2) = (   0.2500000   0.2500000   0.2500000  )

   Crystallographic axes

     site n.     atom                  positions (cryst. coord.)
         1           Ga  tau(   1) = (  0.0000000  0.0000000  0.0000000  )
         2           As  tau(   2) = ( -0.2500000  0.7500000 -0.2500000  )

     number of k points=   201
                       cart. coord. in units 2pi/alat
        k(    1) = (   0.0000000   0.0000000   1.0000000), wk =   0.0099502
        k(    2) = (   0.0000000   0.0000000   0.9750000), wk =   0.0099502
        k(    3) = (   0.0000000   0.0000000   0.9500000), wk =   0.0099502
        k(    4) = (   0.0000000   0.0000000   0.9250000), wk =   0.0099502
        k(    5) = (   0.0000000   0.0000000   0.9000000), wk =   0.0099502
        k(    6) = (   0.0000000   0.0000000   0.8750000), wk =   0.0099502
        k(    7) = (   0.0000000   0.0000000   0.8500000), wk =   0.0099502
        k(    8) = (   0.0000000   0.0000000   0.8250000), wk =   0.0099502
        k(    9) = (   0.0000000   0.0000000   0.8000000), wk =   0.0099502
        k(   10) = (   0.0000000   0.0000000   0.7750000), wk =   0.0099502
        k(   11) = (   0.0000000   0.0000000   0.7500000), wk =   0.0099502
        k(   12) = (   0.0000000   0.0000000   0.7250000), wk =   0.0099502
        k(   13) = (   0.0000000   0.0000000   0.7000000), wk =   0.0099502
        k(   14) = (   0.0000000   0.0000000   0.6750000), wk =   0.0099502
        k(   15) = (   0.0000000   0.0000000   0.6500000), wk =   0.0099502
        k(   16) = (   0.0000000   0.0000000   0.6250000), wk =   0.0099502
        k(   17) = (   0.0000000   0.0000000   0.6000000), wk =   0.0099502
        k(   18) = (   0.0000000   0.0000000   0.5750000), wk =   0.0099502
        k(   19) = (   0.0000000   0.0000000   0.5500000), wk =   0.0099502
        k(   20) = (   0.0000000   0.0000000   0.5250000), wk =   0.0099502
        k(   21) = (   0.0000000   0.0000000   0.5000000), wk =   0.0099502
        k(   22) = (   0.0000000   0.0000000   0.4750000), wk =   0.0099502
        k(   23) = (   0.0000000   0.0000000   0.4500000), wk =   0.0099502
        k(   24) = (   0.0000000   0.0000000   0.4250000), wk =   0.0099502
        k(   25) = (   0.0000000   0.0000000   0.4000000), wk =   0.0099502
        k(   26) = (   0.0000000   0.0000000   0.3750000), wk =   0.0099502
        k(   27) = (   0.0000000   0.0000000   0.3500000), wk =   0.0099502
        k(   28) = (   0.0000000   0.0000000   0.3250000), wk =   0.0099502
        k(   29) = (   0.0000000   0.0000000   0.3000000), wk =   0.0099502
        k(   30) = (   0.0000000   0.0000000   0.2750000), wk =   0.0099502
        k(   31) = (   0.0000000   0.0000000   0.2500000), wk =   0.0099502
        k(   32) = (   0.0000000   0.0000000   0.2250000), wk =   0.0099502
        k(   33) = (   0.0000000   0.0000000   0.2000000), wk =   0.0099502
        k(   34) = (   0.0000000   0.0000000   0.1750000), wk =   0.0099502
        k(   35) = (   0.0000000   0.0000000   0.1500000), wk =   0.0099502
        k(   36) = (   0.0000000   0.0000000   0.1250000), wk =   0.0099502
        k(   37) = (   0.0000000   0.0000000   0.1000000), wk =   0.0099502
        k(   38) = (   0.0000000   0.0000000   0.0750000), wk =   0.0099502
        k(   39) = (   0.0000000   0.0000000   0.0500000), wk =   0.0099502
        k(   40) = (   0.0000000   0.0000000   0.0250000), wk =   0.0099502
        k(   41) = (   0.0000000   0.0000000   0.0000000), wk =   0.0099502
        k(   42) = (  -0.0125000   0.0125000   0.0125000), wk =   0.0099502
        k(   43) = (  -0.0250000   0.0250000   0.0250000), wk =   0.0099502
        k(   44) = (  -0.0375000   0.0375000   0.0375000), wk =   0.0099502
        k(   45) = (  -0.0500000   0.0500000   0.0500000), wk =   0.0099502
        k(   46) = (  -0.0625000   0.0625000   0.0625000), wk =   0.0099502
        k(   47) = (  -0.0750000   0.0750000   0.0750000), wk =   0.0099502
        k(   48) = (  -0.0875000   0.0875000   0.0875000), wk =   0.0099502
        k(   49) = (  -0.1000000   0.1000000   0.1000000), wk =   0.0099502
        k(   50) = (  -0.1125000   0.1125000   0.1125000), wk =   0.0099502
        k(   51) = (  -0.1250000   0.1250000   0.1250000), wk =   0.0099502
        k(   52) = (  -0.1375000   0.1375000   0.1375000), wk =   0.0099502
        k(   53) = (  -0.1500000   0.1500000   0.1500000), wk =   0.0099502
        k(   54) = (  -0.1625000   0.1625000   0.1625000), wk =   0.0099502
        k(   55) = (  -0.1750000   0.1750000   0.1750000), wk =   0.0099502
        k(   56) = (  -0.1875000   0.1875000   0.1875000), wk =   0.0099502
        k(   57) = (  -0.2000000   0.2000000   0.2000000), wk =   0.0099502
        k(   58) = (  -0.2125000   0.2125000   0.2125000), wk =   0.0099502
        k(   59) = (  -0.2250000   0.2250000   0.2250000), wk =   0.0099502
        k(   60) = (  -0.2375000   0.2375000   0.2375000), wk =   0.0099502
        k(   61) = (  -0.2500000   0.2500000   0.2500000), wk =   0.0099502
        k(   62) = (  -0.2625000   0.2625000   0.2625000), wk =   0.0099502
        k(   63) = (  -0.2750000   0.2750000   0.2750000), wk =   0.0099502
        k(   64) = (  -0.2875000   0.2875000   0.2875000), wk =   0.0099502
        k(   65) = (  -0.3000000   0.3000000   0.3000000), wk =   0.0099502
        k(   66) = (  -0.3125000   0.3125000   0.3125000), wk =   0.0099502
        k(   67) = (  -0.3250000   0.3250000   0.3250000), wk =   0.0099502
        k(   68) = (  -0.3375000   0.3375000   0.3375000), wk =   0.0099502
        k(   69) = (  -0.3500000   0.3500000   0.3500000), wk =   0.0099502
        k(   70) = (  -0.3625000   0.3625000   0.3625000), wk =   0.0099502
        k(   71) = (  -0.3750000   0.3750000   0.3750000), wk =   0.0099502
        k(   72) = (  -0.3875000   0.3875000   0.3875000), wk =   0.0099502
        k(   73) = (  -0.4000000   0.4000000   0.4000000), wk =   0.0099502
        k(   74) = (  -0.4125000   0.4125000   0.4125000), wk =   0.0099502
        k(   75) = (  -0.4250000   0.4250000   0.4250000), wk =   0.0099502
        k(   76) = (  -0.4375000   0.4375000   0.4375000), wk =   0.0099502
        k(   77) = (  -0.4500000   0.4500000   0.4500000), wk =   0.0099502
        k(   78) = (  -0.4625000   0.4625000   0.4625000), wk =   0.0099502
        k(   79) = (  -0.4750000   0.4750000   0.4750000), wk =   0.0099502
        k(   80) = (  -0.4875000   0.4875000   0.4875000), wk =   0.0099502
        k(   81) = (  -0.5000000   0.5000000   0.5000000), wk =   0.0099502
        k(   82) = (  -0.5000000   0.4875000   0.5125000), wk =   0.0099502
        k(   83) = (  -0.5000000   0.4750000   0.5250000), wk =   0.0099502
        k(   84) = (  -0.5000000   0.4625000   0.5375000), wk =   0.0099502
        k(   85) = (  -0.5000000   0.4500000   0.5500000), wk =   0.0099502
        k(   86) = (  -0.5000000   0.4375000   0.5625000), wk =   0.0099502
        k(   87) = (  -0.5000000   0.4250000   0.5750000), wk =   0.0099502
        k(   88) = (  -0.5000000   0.4125000   0.5875000), wk =   0.0099502
        k(   89) = (  -0.5000000   0.4000000   0.6000000), wk =   0.0099502
        k(   90) = (  -0.5000000   0.3875000   0.6125000), wk =   0.0099502
        k(   91) = (  -0.5000000   0.3750000   0.6250000), wk =   0.0099502
        k(   92) = (  -0.5000000   0.3625000   0.6375000), wk =   0.0099502
        k(   93) = (  -0.5000000   0.3500000   0.6500000), wk =   0.0099502
        k(   94) = (  -0.5000000   0.3375000   0.6625000), wk =   0.0099502
        k(   95) = (  -0.5000000   0.3250000   0.6750000), wk =   0.0099502
        k(   96) = (  -0.5000000   0.3125000   0.6875000), wk =   0.0099502
        k(   97) = (  -0.5000000   0.3000000   0.7000000), wk =   0.0099502
        k(   98) = (  -0.5000000   0.2875000   0.7125000), wk =   0.0099502
        k(   99) = (  -0.5000000   0.2750000   0.7250000), wk =   0.0099502
        k(  100) = (  -0.5000000   0.2625000   0.7375000), wk =   0.0099502
        k(  101) = (  -0.5000000   0.2500000   0.7500000), wk =   0.0099502
        k(  102) = (  -0.5000000   0.2375000   0.7625000), wk =   0.0099502
        k(  103) = (  -0.5000000   0.2250000   0.7750000), wk =   0.0099502
        k(  104) = (  -0.5000000   0.2125000   0.7875000), wk =   0.0099502
        k(  105) = (  -0.5000000   0.2000000   0.8000000), wk =   0.0099502
        k(  106) = (  -0.5000000   0.1875000   0.8125000), wk =   0.0099502
        k(  107) = (  -0.5000000   0.1750000   0.8250000), wk =   0.0099502
        k(  108) = (  -0.5000000   0.1625000   0.8375000), wk =   0.0099502
        k(  109) = (  -0.5000000   0.1500000   0.8500000), wk =   0.0099502
        k(  110) = (  -0.5000000   0.1375000   0.8625000), wk =   0.0099502
        k(  111) = (  -0.5000000   0.1250000   0.8750000), wk =   0.0099502
        k(  112) = (  -0.5000000   0.1125000   0.8875000), wk =   0.0099502
        k(  113) = (  -0.5000000   0.1000000   0.9000000), wk =   0.0099502
        k(  114) = (  -0.5000000   0.0875000   0.9125000), wk =   0.0099502
        k(  115) = (  -0.5000000   0.0750000   0.9250000), wk =   0.0099502
        k(  116) = (  -0.5000000   0.0625000   0.9375000), wk =   0.0099502
        k(  117) = (  -0.5000000   0.0500000   0.9500000), wk =   0.0099502
        k(  118) = (  -0.5000000   0.0375000   0.9625000), wk =   0.0099502
        k(  119) = (  -0.5000000   0.0250000   0.9750000), wk =   0.0099502
        k(  120) = (  -0.5000000   0.0125000   0.9875000), wk =   0.0099502
        k(  121) = (  -0.5000000   0.0000000   1.0000000), wk =   0.0099502
        k(  122) = (  -0.5062500   0.0000000   0.9937500), wk =   0.0099502
        k(  123) = (  -0.5125000   0.0000000   0.9875000), wk =   0.0099502
        k(  124) = (  -0.5187500   0.0000000   0.9812500), wk =   0.0099502
        k(  125) = (  -0.5250000   0.0000000   0.9750000), wk =   0.0099502
        k(  126) = (  -0.5312500   0.0000000   0.9687500), wk =   0.0099502
        k(  127) = (  -0.5375000   0.0000000   0.9625000), wk =   0.0099502
        k(  128) = (  -0.5437500   0.0000000   0.9562500), wk =   0.0099502
        k(  129) = (  -0.5500000   0.0000000   0.9500000), wk =   0.0099502
        k(  130) = (  -0.5562500   0.0000000   0.9437500), wk =   0.0099502
        k(  131) = (  -0.5625000   0.0000000   0.9375000), wk =   0.0099502
        k(  132) = (  -0.5687500   0.0000000   0.9312500), wk =   0.0099502
        k(  133) = (  -0.5750000   0.0000000   0.9250000), wk =   0.0099502
        k(  134) = (  -0.5812500   0.0000000   0.9187500), wk =   0.0099502
        k(  135) = (  -0.5875000   0.0000000   0.9125000), wk =   0.0099502
        k(  136) = (  -0.5937500   0.0000000   0.9062500), wk =   0.0099502
        k(  137) = (  -0.6000000   0.0000000   0.9000000), wk =   0.0099502
        k(  138) = (  -0.6062500   0.0000000   0.8937500), wk =   0.0099502
        k(  139) = (  -0.6125000   0.0000000   0.8875000), wk =   0.0099502
        k(  140) = (  -0.6187500   0.0000000   0.8812500), wk =   0.0099502
        k(  141) = (  -0.6250000   0.0000000   0.8750000), wk =   0.0099502
        k(  142) = (  -0.6312500   0.0000000   0.8687500), wk =   0.0099502
        k(  143) = (  -0.6375000   0.0000000   0.8625000), wk =   0.0099502
        k(  144) = (  -0.6437500   0.0000000   0.8562500), wk =   0.0099502
        k(  145) = (  -0.6500000   0.0000000   0.8500000), wk =   0.0099502
        k(  146) = (  -0.6562500   0.0000000   0.8437500), wk =   0.0099502
        k(  147) = (  -0.6625000   0.0000000   0.8375000), wk =   0.0099502
        k(  148) = (  -0.6687500   0.0000000   0.8312500), wk =   0.0099502
        k(  149) = (  -0.6750000   0.0000000   0.8250000), wk =   0.0099502
        k(  150) = (  -0.6812500   0.0000000   0.8187500), wk =   0.0099502
        k(  151) = (  -0.6875000   0.0000000   0.8125000), wk =   0.0099502
        k(  152) = (  -0.6937500   0.0000000   0.8062500), wk =   0.0099502
        k(  153) = (  -0.7000000   0.0000000   0.8000000), wk =   0.0099502
        k(  154) = (  -0.7062500   0.0000000   0.7937500), wk =   0.0099502
        k(  155) = (  -0.7125000   0.0000000   0.7875000), wk =   0.0099502
        k(  156) = (  -0.7187500   0.0000000   0.7812500), wk =   0.0099502
        k(  157) = (  -0.7250000   0.0000000   0.7750000), wk =   0.0099502
        k(  158) = (  -0.7312500   0.0000000   0.7687500), wk =   0.0099502
        k(  159) = (  -0.7375000   0.0000000   0.7625000), wk =   0.0099502
        k(  160) = (  -0.7437500   0.0000000   0.7562500), wk =   0.0099502
        k(  161) = (  -0.7500000   0.0000000   0.7500000), wk =   0.0099502
        k(  162) = (  -0.7312500   0.0000000   0.7312500), wk =   0.0099502
        k(  163) = (  -0.7125000   0.0000000   0.7125000), wk =   0.0099502
        k(  164) = (  -0.6937500   0.0000000   0.6937500), wk =   0.0099502
        k(  165) = (  -0.6750000   0.0000000   0.6750000), wk =   0.0099502
        k(  166) = (  -0.6562500   0.0000000   0.6562500), wk =   0.0099502
        k(  167) = (  -0.6375000   0.0000000   0.6375000), wk =   0.0099502
        k(  168) = (  -0.6187500   0.0000000   0.6187500), wk =   0.0099502
        k(  169) = (  -0.6000000   0.0000000   0.6000000), wk =   0.0099502
        k(  170) = (  -0.5812500   0.0000000   0.5812500), wk =   0.0099502
        k(  171) = (  -0.5625000   0.0000000   0.5625000), wk =   0.0099502
        k(  172) = (  -0.5437500   0.0000000   0.5437500), wk =   0.0099502
        k(  173) = (  -0.5250000   0.0000000   0.5250000), wk =   0.0099502
        k(  174) = (  -0.5062500   0.0000000   0.5062500), wk =   0.0099502
        k(  175) = (  -0.4875000   0.0000000   0.4875000), wk =   0.0099502
        k(  176) = (  -0.4687500   0.0000000   0.4687500), wk =   0.0099502
        k(  177) = (  -0.4500000   0.0000000   0.4500000), wk =   0.0099502
        k(  178) = (  -0.4312500   0.0000000   0.4312500), wk =   0.0099502
        k(  179) = (  -0.4125000   0.0000000   0.4125000), wk =   0.0099502
        k(  180) = (  -0.3937500   0.0000000   0.3937500), wk =   0.0099502
        k(  181) = (  -0.3750000   0.0000000   0.3750000), wk =   0.0099502
        k(  182) = (  -0.3562500   0.0000000   0.3562500), wk =   0.0099502
        k(  183) = (  -0.3375000   0.0000000   0.3375000), wk =   0.0099502
        k(  184) = (  -0.3187500   0.0000000   0.3187500), wk =   0.0099502
        k(  185) = (  -0.3000000   0.0000000   0.3000000), wk =   0.0099502
        k(  186) = (  -0.2812500   0.0000000   0.2812500), wk =   0.0099502
        k(  187) = (  -0.2625000   0.0000000   0.2625000), wk =   0.0099502
        k(  188) = (  -0.2437500   0.0000000   0.2437500), wk =   0.0099502
        k(  189) = (  -0.2250000   0.0000000   0.2250000), wk =   0.0099502
        k(  190) = (  -0.2062500   0.0000000   0.2062500), wk =   0.0099502
        k(  191) = (  -0.1875000   0.0000000   0.1875000), wk =   0.0099502
        k(  192) = (  -0.1687500   0.0000000   0.1687500), wk =   0.0099502
        k(  193) = (  -0.1500000   0.0000000   0.1500000), wk =   0.0099502
        k(  194) = (  -0.1312500   0.0000000   0.1312500), wk =   0.0099502
        k(  195) = (  -0.1125000   0.0000000   0.1125000), wk =   0.0099502
        k(  196) = (  -0.0937500   0.0000000   0.0937500), wk =   0.0099502
        k(  197) = (  -0.0750000   0.0000000   0.0750000), wk =   0.0099502
        k(  198) = (  -0.0562500   0.0000000   0.0562500), wk =   0.0099502
        k(  199) = (  -0.0375000   0.0000000   0.0375000), wk =   0.0099502
        k(  200) = (  -0.0187500   0.0000000   0.0187500), wk =   0.0099502
        k(  201) = (   0.0000000   0.0000000   0.0000000), wk =   0.0099502

                       cryst. coord.
        k(    1) = (   0.5000000   0.5000000   0.0000000), wk =   0.0099502
        k(    2) = (   0.4875000   0.4875000   0.0000000), wk =   0.0099502
        k(    3) = (   0.4750000   0.4750000   0.0000000), wk =   0.0099502
        k(    4) = (   0.4625000   0.4625000   0.0000000), wk =   0.0099502
        k(    5) = (   0.4500000   0.4500000   0.0000000), wk =   0.0099502
        k(    6) = (   0.4375000   0.4375000   0.0000000), wk =   0.0099502
        k(    7) = (   0.4250000   0.4250000   0.0000000), wk =   0.0099502
        k(    8) = (   0.4125000   0.4125000   0.0000000), wk =   0.0099502
        k(    9) = (   0.4000000   0.4000000   0.0000000), wk =   0.0099502
        k(   10) = (   0.3875000   0.3875000   0.0000000), wk =   0.0099502
        k(   11) = (   0.3750000   0.3750000   0.0000000), wk =   0.0099502
        k(   12) = (   0.3625000   0.3625000   0.0000000), wk =   0.0099502
        k(   13) = (   0.3500000   0.3500000   0.0000000), wk =   0.0099502
        k(   14) = (   0.3375000   0.3375000   0.0000000), wk =   0.0099502
        k(   15) = (   0.3250000   0.3250000   0.0000000), wk =   0.0099502
        k(   16) = (   0.3125000   0.3125000   0.0000000), wk =   0.0099502
        k(   17) = (   0.3000000   0.3000000   0.0000000), wk =   0.0099502
        k(   18) = (   0.2875000   0.2875000   0.0000000), wk =   0.0099502
        k(   19) = (   0.2750000   0.2750000   0.0000000), wk =   0.0099502
        k(   20) = (   0.2625000   0.2625000   0.0000000), wk =   0.0099502
        k(   21) = (   0.2500000   0.2500000   0.0000000), wk =   0.0099502
        k(   22) = (   0.2375000   0.2375000   0.0000000), wk =   0.0099502
        k(   23) = (   0.2250000   0.2250000   0.0000000), wk =   0.0099502
        k(   24) = (   0.2125000   0.2125000   0.0000000), wk =   0.0099502
        k(   25) = (   0.2000000   0.2000000   0.0000000), wk =   0.0099502
        k(   26) = (   0.1875000   0.1875000   0.0000000), wk =   0.0099502
        k(   27) = (   0.1750000   0.1750000   0.0000000), wk =   0.0099502
        k(   28) = (   0.1625000   0.1625000   0.0000000), wk =   0.0099502
        k(   29) = (   0.1500000   0.1500000   0.0000000), wk =   0.0099502
        k(   30) = (   0.1375000   0.1375000   0.0000000), wk =   0.0099502
        k(   31) = (   0.1250000   0.1250000   0.0000000), wk =   0.0099502
        k(   32) = (   0.1125000   0.1125000   0.0000000), wk =   0.0099502
        k(   33) = (   0.1000000   0.1000000   0.0000000), wk =   0.0099502
        k(   34) = (   0.0875000   0.0875000   0.0000000), wk =   0.0099502
        k(   35) = (   0.0750000   0.0750000   0.0000000), wk =   0.0099502
        k(   36) = (   0.0625000   0.0625000   0.0000000), wk =   0.0099502
        k(   37) = (   0.0500000   0.0500000   0.0000000), wk =   0.0099502
        k(   38) = (   0.0375000   0.0375000   0.0000000), wk =   0.0099502
        k(   39) = (   0.0250000   0.0250000   0.0000000), wk =   0.0099502
        k(   40) = (   0.0125000   0.0125000   0.0000000), wk =   0.0099502
        k(   41) = (   0.0000000   0.0000000   0.0000000), wk =   0.0099502
        k(   42) = (   0.0125000   0.0125000   0.0125000), wk =   0.0099502
        k(   43) = (   0.0250000   0.0250000   0.0250000), wk =   0.0099502
        k(   44) = (   0.0375000   0.0375000   0.0375000), wk =   0.0099502
        k(   45) = (   0.0500000   0.0500000   0.0500000), wk =   0.0099502
        k(   46) = (   0.0625000   0.0625000   0.0625000), wk =   0.0099502
        k(   47) = (   0.0750000   0.0750000   0.0750000), wk =   0.0099502
        k(   48) = (   0.0875000   0.0875000   0.0875000), wk =   0.0099502
        k(   49) = (   0.1000000   0.1000000   0.1000000), wk =   0.0099502
        k(   50) = (   0.1125000   0.1125000   0.1125000), wk =   0.0099502
        k(   51) = (   0.1250000   0.1250000   0.1250000), wk =   0.0099502
        k(   52) = (   0.1375000   0.1375000   0.1375000), wk =   0.0099502
        k(   53) = (   0.1500000   0.1500000   0.1500000), wk =   0.0099502
        k(   54) = (   0.1625000   0.1625000   0.1625000), wk =   0.0099502
        k(   55) = (   0.1750000   0.1750000   0.1750000), wk =   0.0099502
        k(   56) = (   0.1875000   0.1875000   0.1875000), wk =   0.0099502
        k(   57) = (   0.2000000   0.2000000   0.2000000), wk =   0.0099502
        k(   58) = (   0.2125000   0.2125000   0.2125000), wk =   0.0099502
        k(   59) = (   0.2250000   0.2250000   0.2250000), wk =   0.0099502
        k(   60) = (   0.2375000   0.2375000   0.2375000), wk =   0.0099502
        k(   61) = (   0.2500000   0.2500000   0.2500000), wk =   0.0099502
        k(   62) = (   0.2625000   0.2625000   0.2625000), wk =   0.0099502
        k(   63) = (   0.2750000   0.2750000   0.2750000), wk =   0.0099502
        k(   64) = (   0.2875000   0.2875000   0.2875000), wk =   0.0099502
        k(   65) = (   0.3000000   0.3000000   0.3000000), wk =   0.0099502
        k(   66) = (   0.3125000   0.3125000   0.3125000), wk =   0.0099502
        k(   67) = (   0.3250000   0.3250000   0.3250000), wk =   0.0099502
        k(   68) = (   0.3375000   0.3375000   0.3375000), wk =   0.0099502
        k(   69) = (   0.3500000   0.3500000   0.3500000), wk =   0.0099502
        k(   70) = (   0.3625000   0.3625000   0.3625000), wk =   0.0099502
        k(   71) = (   0.3750000   0.3750000   0.3750000), wk =   0.0099502
        k(   72) = (   0.3875000   0.3875000   0.3875000), wk =   0.0099502
        k(   73) = (   0.4000000   0.4000000   0.4000000), wk =   0.0099502
        k(   74) = (   0.4125000   0.4125000   0.4125000), wk =   0.0099502
        k(   75) = (   0.4250000   0.4250000   0.4250000), wk =   0.0099502
        k(   76) = (   0.4375000   0.4375000   0.4375000), wk =   0.0099502
        k(   77) = (   0.4500000   0.4500000   0.4500000), wk =   0.0099502
        k(   78) = (   0.4625000   0.4625000   0.4625000), wk =   0.0099502
        k(   79) = (   0.4750000   0.4750000   0.4750000), wk =   0.0099502
        k(   80) = (   0.4875000   0.4875000   0.4875000), wk =   0.0099502
        k(   81) = (   0.5000000   0.5000000   0.5000000), wk =   0.0099502
        k(   82) = (   0.5062500   0.5000000   0.4937500), wk =   0.0099502
        k(   83) = (   0.5125000   0.5000000   0.4875000), wk =   0.0099502
        k(   84) = (   0.5187500   0.5000000   0.4812500), wk =   0.0099502
        k(   85) = (   0.5250000   0.5000000   0.4750000), wk =   0.0099502
        k(   86) = (   0.5312500   0.5000000   0.4687500), wk =   0.0099502
        k(   87) = (   0.5375000   0.5000000   0.4625000), wk =   0.0099502
        k(   88) = (   0.5437500   0.5000000   0.4562500), wk =   0.0099502
        k(   89) = (   0.5500000   0.5000000   0.4500000), wk =   0.0099502
        k(   90) = (   0.5562500   0.5000000   0.4437500), wk =   0.0099502
        k(   91) = (   0.5625000   0.5000000   0.4375000), wk =   0.0099502
        k(   92) = (   0.5687500   0.5000000   0.4312500), wk =   0.0099502
        k(   93) = (   0.5750000   0.5000000   0.4250000), wk =   0.0099502
        k(   94) = (   0.5812500   0.5000000   0.4187500), wk =   0.0099502
        k(   95) = (   0.5875000   0.5000000   0.4125000), wk =   0.0099502
        k(   96) = (   0.5937500   0.5000000   0.4062500), wk =   0.0099502
        k(   97) = (   0.6000000   0.5000000   0.4000000), wk =   0.0099502
        k(   98) = (   0.6062500   0.5000000   0.3937500), wk =   0.0099502
        k(   99) = (   0.6125000   0.5000000   0.3875000), wk =   0.0099502
        k(  100) = (   0.6187500   0.5000000   0.3812500), wk =   0.0099502
        k(  101) = (   0.6250000   0.5000000   0.3750000), wk =   0.0099502
        k(  102) = (   0.6312500   0.5000000   0.3687500), wk =   0.0099502
        k(  103) = (   0.6375000   0.5000000   0.3625000), wk =   0.0099502
        k(  104) = (   0.6437500   0.5000000   0.3562500), wk =   0.0099502
        k(  105) = (   0.6500000   0.5000000   0.3500000), wk =   0.0099502
        k(  106) = (   0.6562500   0.5000000   0.3437500), wk =   0.0099502
        k(  107) = (   0.6625000   0.5000000   0.3375000), wk =   0.0099502
        k(  108) = (   0.6687500   0.5000000   0.3312500), wk =   0.0099502
        k(  109) = (   0.6750000   0.5000000   0.3250000), wk =   0.0099502
        k(  110) = (   0.6812500   0.5000000   0.3187500), wk =   0.0099502
        k(  111) = (   0.6875000   0.5000000   0.3125000), wk =   0.0099502
        k(  112) = (   0.6937500   0.5000000   0.3062500), wk =   0.0099502
        k(  113) = (   0.7000000   0.5000000   0.3000000), wk =   0.0099502
        k(  114) = (   0.7062500   0.5000000   0.2937500), wk =   0.0099502
        k(  115) = (   0.7125000   0.5000000   0.2875000), wk =   0.0099502
        k(  116) = (   0.7187500   0.5000000   0.2812500), wk =   0.0099502
        k(  117) = (   0.7250000   0.5000000   0.2750000), wk =   0.0099502
        k(  118) = (   0.7312500   0.5000000   0.2687500), wk =   0.0099502
        k(  119) = (   0.7375000   0.5000000   0.2625000), wk =   0.0099502
        k(  120) = (   0.7437500   0.5000000   0.2562500), wk =   0.0099502
        k(  121) = (   0.7500000   0.5000000   0.2500000), wk =   0.0099502
        k(  122) = (   0.7500000   0.4968750   0.2531250), wk =   0.0099502
        k(  123) = (   0.7500000   0.4937500   0.2562500), wk =   0.0099502
        k(  124) = (   0.7500000   0.4906250   0.2593750), wk =   0.0099502
        k(  125) = (   0.7500000   0.4875000   0.2625000), wk =   0.0099502
        k(  126) = (   0.7500000   0.4843750   0.2656250), wk =   0.0099502
        k(  127) = (   0.7500000   0.4812500   0.2687500), wk =   0.0099502
        k(  128) = (   0.7500000   0.4781250   0.2718750), wk =   0.0099502
        k(  129) = (   0.7500000   0.4750000   0.2750000), wk =   0.0099502
        k(  130) = (   0.7500000   0.4718750   0.2781250), wk =   0.0099502
        k(  131) = (   0.7500000   0.4687500   0.2812500), wk =   0.0099502
        k(  132) = (   0.7500000   0.4656250   0.2843750), wk =   0.0099502
        k(  133) = (   0.7500000   0.4625000   0.2875000), wk =   0.0099502
        k(  134) = (   0.7500000   0.4593750   0.2906250), wk =   0.0099502
        k(  135) = (   0.7500000   0.4562500   0.2937500), wk =   0.0099502
        k(  136) = (   0.7500000   0.4531250   0.2968750), wk =   0.0099502
        k(  137) = (   0.7500000   0.4500000   0.3000000), wk =   0.0099502
        k(  138) = (   0.7500000   0.4468750   0.3031250), wk =   0.0099502
        k(  139) = (   0.7500000   0.4437500   0.3062500), wk =   0.0099502
        k(  140) = (   0.7500000   0.4406250   0.3093750), wk =   0.0099502
        k(  141) = (   0.7500000   0.4375000   0.3125000), wk =   0.0099502
        k(  142) = (   0.7500000   0.4343750   0.3156250), wk =   0.0099502
        k(  143) = (   0.7500000   0.4312500   0.3187500), wk =   0.0099502
        k(  144) = (   0.7500000   0.4281250   0.3218750), wk =   0.0099502
        k(  145) = (   0.7500000   0.4250000   0.3250000), wk =   0.0099502
        k(  146) = (   0.7500000   0.4218750   0.3281250), wk =   0.0099502
        k(  147) = (   0.7500000   0.4187500   0.3312500), wk =   0.0099502
        k(  148) = (   0.7500000   0.4156250   0.3343750), wk =   0.0099502
        k(  149) = (   0.7500000   0.4125000   0.3375000), wk =   0.0099502
        k(  150) = (   0.7500000   0.4093750   0.3406250), wk =   0.0099502
        k(  151) = (   0.7500000   0.4062500   0.3437500), wk =   0.0099502
        k(  152) = (   0.7500000   0.4031250   0.3468750), wk =   0.0099502
        k(  153) = (   0.7500000   0.4000000   0.3500000), wk =   0.0099502
        k(  154) = (   0.7500000   0.3968750   0.3531250), wk =   0.0099502
        k(  155) = (   0.7500000   0.3937500   0.3562500), wk =   0.0099502
        k(  156) = (   0.7500000   0.3906250   0.3593750), wk =   0.0099502
        k(  157) = (   0.7500000   0.3875000   0.3625000), wk =   0.0099502
        k(  158) = (   0.7500000   0.3843750   0.3656250), wk =   0.0099502
        k(  159) = (   0.7500000   0.3812500   0.3687500), wk =   0.0099502
        k(  160) = (   0.7500000   0.3781250   0.3718750), wk =   0.0099502
        k(  161) = (   0.7500000   0.3750000   0.3750000), wk =   0.0099502
        k(  162) = (   0.7312500   0.3656250   0.3656250), wk =   0.0099502
        k(  163) = (   0.7125000   0.3562500   0.3562500), wk =   0.0099502
        k(  164) = (   0.6937500   0.3468750   0.3468750), wk =   0.0099502
        k(  165) = (   0.6750000   0.3375000   0.3375000), wk =   0.0099502
        k(  166) = (   0.6562500   0.3281250   0.3281250), wk =   0.0099502
        k(  167) = (   0.6375000   0.3187500   0.3187500), wk =   0.0099502
        k(  168) = (   0.6187500   0.3093750   0.3093750), wk =   0.0099502
        k(  169) = (   0.6000000   0.3000000   0.3000000), wk =   0.0099502
        k(  170) = (   0.5812500   0.2906250   0.2906250), wk =   0.0099502
        k(  171) = (   0.5625000   0.2812500   0.2812500), wk =   0.0099502
        k(  172) = (   0.5437500   0.2718750   0.2718750), wk =   0.0099502
        k(  173) = (   0.5250000   0.2625000   0.2625000), wk =   0.0099502
        k(  174) = (   0.5062500   0.2531250   0.2531250), wk =   0.0099502
        k(  175) = (   0.4875000   0.2437500   0.2437500), wk =   0.0099502
        k(  176) = (   0.4687500   0.2343750   0.2343750), wk =   0.0099502
        k(  177) = (   0.4500000   0.2250000   0.2250000), wk =   0.0099502
        k(  178) = (   0.4312500   0.2156250   0.2156250), wk =   0.0099502
        k(  179) = (   0.4125000   0.2062500   0.2062500), wk =   0.0099502
        k(  180) = (   0.3937500   0.1968750   0.1968750), wk =   0.0099502
        k(  181) = (   0.3750000   0.1875000   0.1875000), wk =   0.0099502
        k(  182) = (   0.3562500   0.1781250   0.1781250), wk =   0.0099502
        k(  183) = (   0.3375000   0.1687500   0.1687500), wk =   0.0099502
        k(  184) = (   0.3187500   0.1593750   0.1593750), wk =   0.0099502
        k(  185) = (   0.3000000   0.1500000   0.1500000), wk =   0.0099502
        k(  186) = (   0.2812500   0.1406250   0.1406250), wk =   0.0099502
        k(  187) = (   0.2625000   0.1312500   0.1312500), wk =   0.0099502
        k(  188) = (   0.2437500   0.1218750   0.1218750), wk =   0.0099502
        k(  189) = (   0.2250000   0.1125000   0.1125000), wk =   0.0099502
        k(  190) = (   0.2062500   0.1031250   0.1031250), wk =   0.0099502
        k(  191) = (   0.1875000   0.0937500   0.0937500), wk =   0.0099502
        k(  192) = (   0.1687500   0.0843750   0.0843750), wk =   0.0099502
        k(  193) = (   0.1500000   0.0750000   0.0750000), wk =   0.0099502
        k(  194) = (   0.1312500   0.0656250   0.0656250), wk =   0.0099502
        k(  195) = (   0.1125000   0.0562500   0.0562500), wk =   0.0099502
        k(  196) = (   0.0937500   0.0468750   0.0468750), wk =   0.0099502
        k(  197) = (   0.0750000   0.0375000   0.0375000), wk =   0.0099502
        k(  198) = (   0.0562500   0.0281250   0.0281250), wk =   0.0099502
        k(  199) = (   0.0375000   0.0187500   0.0187500), wk =   0.0099502
        k(  200) = (   0.0187500   0.0093750   0.0093750), wk =   0.0099502
        k(  201) = (   0.0000000   0.0000000   0.0000000), wk =   0.0099502

     Dense  grid:    27725 G-vectors     FFT dimensions: (  45,  45,  45)

     Dynamical RAM for                 wfc:       0.53 MB

     Dynamical RAM for     wfc (w. buffer):       0.53 MB

     Dynamical RAM for           str. fact:       0.85 MB

     Dynamical RAM for           local pot:       0.00 MB

     Dynamical RAM for          nlocal pot:       0.42 MB

     Dynamical RAM for                qrad:       0.25 MB

     Dynamical RAM for          rho,v,vnew:       3.35 MB

     Dynamical RAM for           G-vectors:       1.80 MB

     Dynamical RAM for          h,s,v(r/c):       0.02 MB

     Dynamical RAM for          <psi|beta>:       0.00 MB

     Dynamical RAM for                 psi:       1.06 MB

     Dynamical RAM for                hpsi:       1.06 MB

     Dynamical RAM for      wfcinit/wfcrot:       1.06 MB

     Estimated static dynamical RAM per process >      11.95 MB

     Estimated max dynamical RAM per process >      14.09 MB

     The potential is recalculated from file :
     ./SCRATCH/gallium_arsenide.save/charge-density

     Starting wfcs are    8 randomized atomic wfcs +    2 random wfcs

     Band Structure Calculation
     Davidson diagonalization with overlap

     Computing kpt #:     1  of   201
     total cpu time spent up to now is        0.8 secs

     Computing kpt #:     2  of   201
     total cpu time spent up to now is        1.5 secs

     Computing kpt #:     3  of   201
     total cpu time spent up to now is        2.3 secs

     Computing kpt #:     4  of   201
     total cpu time spent up to now is        3.2 secs

     Computing kpt #:     5  of   201
     total cpu time spent up to now is        4.0 secs

     Computing kpt #:     6  of   201
     total cpu time spent up to now is        4.7 secs

     Computing kpt #:     7  of   201
     total cpu time spent up to now is        5.5 secs

     Computing kpt #:     8  of   201
     total cpu time spent up to now is        6.2 secs

     Computing kpt #:     9  of   201
     total cpu time spent up to now is        6.9 secs

     Computing kpt #:    10  of   201
     total cpu time spent up to now is        7.7 secs

     Computing kpt #:    11  of   201
     total cpu time spent up to now is        8.3 secs

     Computing kpt #:    12  of   201
     total cpu time spent up to now is        9.0 secs

     Computing kpt #:    13  of   201
     total cpu time spent up to now is        9.7 secs

     Computing kpt #:    14  of   201
     total cpu time spent up to now is       10.3 secs

     Computing kpt #:    15  of   201
     total cpu time spent up to now is       11.0 secs

     Computing kpt #:    16  of   201
     total cpu time spent up to now is       11.6 secs

     Computing kpt #:    17  of   201
     total cpu time spent up to now is       12.1 secs

     Computing kpt #:    18  of   201
     total cpu time spent up to now is       12.7 secs

     Computing kpt #:    19  of   201
     total cpu time spent up to now is       13.3 secs

     Computing kpt #:    20  of   201
     total cpu time spent up to now is       13.9 secs

     Computing kpt #:    21  of   201
     total cpu time spent up to now is       14.5 secs

     Computing kpt #:    22  of   201
     total cpu time spent up to now is       15.1 secs

     Computing kpt #:    23  of   201
     total cpu time spent up to now is       15.7 secs

     Computing kpt #:    24  of   201
     total cpu time spent up to now is       16.3 secs

     Computing kpt #:    25  of   201
     total cpu time spent up to now is       16.9 secs

     Computing kpt #:    26  of   201
     total cpu time spent up to now is       17.5 secs

     Computing kpt #:    27  of   201
     total cpu time spent up to now is       18.0 secs

     Computing kpt #:    28  of   201
     total cpu time spent up to now is       18.5 secs

     Computing kpt #:    29  of   201
     total cpu time spent up to now is       19.1 secs

     Computing kpt #:    30  of   201
     total cpu time spent up to now is       19.6 secs

     Computing kpt #:    31  of   201
     total cpu time spent up to now is       20.2 secs

     Computing kpt #:    32  of   201
     total cpu time spent up to now is       20.7 secs

     Computing kpt #:    33  of   201
     total cpu time spent up to now is       21.2 secs

     Computing kpt #:    34  of   201
     total cpu time spent up to now is       21.8 secs

     Computing kpt #:    35  of   201
     total cpu time spent up to now is       22.3 secs

     Computing kpt #:    36  of   201
     total cpu time spent up to now is       22.8 secs

     Computing kpt #:    37  of   201
     total cpu time spent up to now is       23.4 secs

     Computing kpt #:    38  of   201
     total cpu time spent up to now is       23.9 secs

     Computing kpt #:    39  of   201
     total cpu time spent up to now is       24.5 secs

     Computing kpt #:    40  of   201
     total cpu time spent up to now is       25.0 secs

     Computing kpt #:    41  of   201
     total cpu time spent up to now is       25.5 secs

     Computing kpt #:    42  of   201
     total cpu time spent up to now is       25.9 secs

     Computing kpt #:    43  of   201
     total cpu time spent up to now is       26.5 secs

     Computing kpt #:    44  of   201
     total cpu time spent up to now is       27.0 secs

     Computing kpt #:    45  of   201
     total cpu time spent up to now is       27.5 secs

     Computing kpt #:    46  of   201
     total cpu time spent up to now is       28.0 secs

     Computing kpt #:    47  of   201
     total cpu time spent up to now is       28.5 secs

     Computing kpt #:    48  of   201
     total cpu time spent up to now is       29.0 secs

     Computing kpt #:    49  of   201
     total cpu time spent up to now is       29.6 secs

     Computing kpt #:    50  of   201
     total cpu time spent up to now is       30.2 secs

     Computing kpt #:    51  of   201
     total cpu time spent up to now is       30.7 secs

     Computing kpt #:    52  of   201
     total cpu time spent up to now is       31.3 secs

     Computing kpt #:    53  of   201
     total cpu time spent up to now is       31.9 secs

     Computing kpt #:    54  of   201
     total cpu time spent up to now is       32.4 secs

     Computing kpt #:    55  of   201
     total cpu time spent up to now is       33.0 secs

     Computing kpt #:    56  of   201
     total cpu time spent up to now is       33.6 secs

     Computing kpt #:    57  of   201
     total cpu time spent up to now is       34.1 secs

     Computing kpt #:    58  of   201
     total cpu time spent up to now is       34.7 secs

     Computing kpt #:    59  of   201
     total cpu time spent up to now is       35.2 secs

     Computing kpt #:    60  of   201
     total cpu time spent up to now is       35.8 secs

     Computing kpt #:    61  of   201
     total cpu time spent up to now is       36.4 secs

     Computing kpt #:    62  of   201
     total cpu time spent up to now is       37.0 secs

     Computing kpt #:    63  of   201
     total cpu time spent up to now is       37.5 secs

     Computing kpt #:    64  of   201
     total cpu time spent up to now is       38.1 secs

     Computing kpt #:    65  of   201
     total cpu time spent up to now is       38.7 secs

     Computing kpt #:    66  of   201
     total cpu time spent up to now is       39.3 secs

     Computing kpt #:    67  of   201
     total cpu time spent up to now is       39.8 secs

     Computing kpt #:    68  of   201
     total cpu time spent up to now is       40.4 secs

     Computing kpt #:    69  of   201
     total cpu time spent up to now is       40.9 secs

     Computing kpt #:    70  of   201
     total cpu time spent up to now is       41.5 secs

     Computing kpt #:    71  of   201
     total cpu time spent up to now is       42.1 secs

     Computing kpt #:    72  of   201
     total cpu time spent up to now is       42.7 secs

     Computing kpt #:    73  of   201
     total cpu time spent up to now is       43.3 secs

     Computing kpt #:    74  of   201
     total cpu time spent up to now is       43.9 secs

     Computing kpt #:    75  of   201
     total cpu time spent up to now is       44.5 secs

     Computing kpt #:    76  of   201
     total cpu time spent up to now is       45.2 secs

     Computing kpt #:    77  of   201
     total cpu time spent up to now is       45.8 secs

     Computing kpt #:    78  of   201
     total cpu time spent up to now is       46.4 secs

     Computing kpt #:    79  of   201
     total cpu time spent up to now is       47.0 secs

     Computing kpt #:    80  of   201
     total cpu time spent up to now is       47.7 secs

     Computing kpt #:    81  of   201
     total cpu time spent up to now is       48.3 secs

     Computing kpt #:    82  of   201
     c_bands:  1 eigenvalues not converged
     total cpu time spent up to now is       49.2 secs

     Computing kpt #:    83  of   201
     total cpu time spent up to now is       50.2 secs

     Computing kpt #:    84  of   201
     total cpu time spent up to now is       50.9 secs

     Computing kpt #:    85  of   201
     total cpu time spent up to now is       51.7 secs

     Computing kpt #:    86  of   201
     total cpu time spent up to now is       52.5 secs

     Computing kpt #:    87  of   201
     total cpu time spent up to now is       53.2 secs

     Computing kpt #:    88  of   201
     total cpu time spent up to now is       53.9 secs

     Computing kpt #:    89  of   201
     total cpu time spent up to now is       54.8 secs

     Computing kpt #:    90  of   201
     total cpu time spent up to now is       55.5 secs

     Computing kpt #:    91  of   201
     total cpu time spent up to now is       56.2 secs

     Computing kpt #:    92  of   201
     total cpu time spent up to now is       56.9 secs

     Computing kpt #:    93  of   201
     total cpu time spent up to now is       57.7 secs

     Computing kpt #:    94  of   201
     total cpu time spent up to now is       58.6 secs

     Computing kpt #:    95  of   201
     total cpu time spent up to now is       59.5 secs

     Computing kpt #:    96  of   201
     total cpu time spent up to now is       60.3 secs

     Computing kpt #:    97  of   201
     total cpu time spent up to now is       61.2 secs

     Computing kpt #:    98  of   201
     total cpu time spent up to now is       62.1 secs

     Computing kpt #:    99  of   201
     total cpu time spent up to now is       62.9 secs

     Computing kpt #:   100  of   201
     total cpu time spent up to now is       63.8 secs

     Computing kpt #:   101  of   201
     total cpu time spent up to now is       64.7 secs

     Computing kpt #:   102  of   201
     total cpu time spent up to now is       65.6 secs

     Computing kpt #:   103  of   201
     total cpu time spent up to now is       66.4 secs

     Computing kpt #:   104  of   201
     total cpu time spent up to now is       67.3 secs

     Computing kpt #:   105  of   201
     total cpu time spent up to now is       68.2 secs

     Computing kpt #:   106  of   201
     total cpu time spent up to now is       69.0 secs

     Computing kpt #:   107  of   201
     total cpu time spent up to now is       69.8 secs

     Computing kpt #:   108  of   201
     total cpu time spent up to now is       70.7 secs

     Computing kpt #:   109  of   201
     total cpu time spent up to now is       71.6 secs

     Computing kpt #:   110  of   201
     total cpu time spent up to now is       72.5 secs

     Computing kpt #:   111  of   201
     total cpu time spent up to now is       73.4 secs

     Computing kpt #:   112  of   201
     total cpu time spent up to now is       74.2 secs

     Computing kpt #:   113  of   201
     total cpu time spent up to now is       75.1 secs

     Computing kpt #:   114  of   201
     total cpu time spent up to now is       75.9 secs

     Computing kpt #:   115  of   201
     total cpu time spent up to now is       76.8 secs

     Computing kpt #:   116  of   201
     total cpu time spent up to now is       77.6 secs

     Computing kpt #:   117  of   201
     total cpu time spent up to now is       78.3 secs

     Computing kpt #:   118  of   201
     total cpu time spent up to now is       79.0 secs

     Computing kpt #:   119  of   201
     total cpu time spent up to now is       79.7 secs

     Computing kpt #:   120  of   201
     total cpu time spent up to now is       80.3 secs

     Computing kpt #:   121  of   201
     total cpu time spent up to now is       81.0 secs

     Computing kpt #:   122  of   201
     total cpu time spent up to now is       81.7 secs

     Computing kpt #:   123  of   201
     total cpu time spent up to now is       82.3 secs

     Computing kpt #:   124  of   201
     total cpu time spent up to now is       82.9 secs

     Computing kpt #:   125  of   201
     total cpu time spent up to now is       83.6 secs

     Computing kpt #:   126  of   201
     total cpu time spent up to now is       84.4 secs

     Computing kpt #:   127  of   201
     total cpu time spent up to now is       85.0 secs

     Computing kpt #:   128  of   201
     total cpu time spent up to now is       85.8 secs

     Computing kpt #:   129  of   201
     total cpu time spent up to now is       86.5 secs

     Computing kpt #:   130  of   201
     total cpu time spent up to now is       87.2 secs

     Computing kpt #:   131  of   201
     total cpu time spent up to now is       88.0 secs

     Computing kpt #:   132  of   201
     total cpu time spent up to now is       88.7 secs

     Computing kpt #:   133  of   201
     total cpu time spent up to now is       89.4 secs

     Computing kpt #:   134  of   201
     total cpu time spent up to now is       90.1 secs

     Computing kpt #:   135  of   201
     total cpu time spent up to now is       90.8 secs

     Computing kpt #:   136  of   201
     total cpu time spent up to now is       91.6 secs

     Computing kpt #:   137  of   201
     total cpu time spent up to now is       92.3 secs

     Computing kpt #:   138  of   201
     total cpu time spent up to now is       93.0 secs

     Computing kpt #:   139  of   201
     total cpu time spent up to now is       93.8 secs

     Computing kpt #:   140  of   201
     total cpu time spent up to now is       94.6 secs

     Computing kpt #:   141  of   201
     total cpu time spent up to now is       95.4 secs

     Computing kpt #:   142  of   201
     total cpu time spent up to now is       96.1 secs

     Computing kpt #:   143  of   201
     total cpu time spent up to now is       96.8 secs

     Computing kpt #:   144  of   201
     total cpu time spent up to now is       97.6 secs

     Computing kpt #:   145  of   201
     total cpu time spent up to now is       98.3 secs

     Computing kpt #:   146  of   201
     total cpu time spent up to now is       99.1 secs

     Computing kpt #:   147  of   201
     total cpu time spent up to now is       99.8 secs

     Computing kpt #:   148  of   201
     total cpu time spent up to now is      100.5 secs

     Computing kpt #:   149  of   201
     total cpu time spent up to now is      101.3 secs

     Computing kpt #:   150  of   201
     total cpu time spent up to now is      102.0 secs

     Computing kpt #:   151  of   201
     total cpu time spent up to now is      102.7 secs

     Computing kpt #:   152  of   201
     total cpu time spent up to now is      103.5 secs

     Computing kpt #:   153  of   201
     total cpu time spent up to now is      104.1 secs

     Computing kpt #:   154  of   201
     total cpu time spent up to now is      104.9 secs

     Computing kpt #:   155  of   201
     total cpu time spent up to now is      105.5 secs

     Computing kpt #:   156  of   201
     total cpu time spent up to now is      106.2 secs

     Computing kpt #:   157  of   201
     total cpu time spent up to now is      107.0 secs

     Computing kpt #:   158  of   201
     total cpu time spent up to now is      107.7 secs

     Computing kpt #:   159  of   201
     total cpu time spent up to now is      108.4 secs

     Computing kpt #:   160  of   201
     total cpu time spent up to now is      109.1 secs

     Computing kpt #:   161  of   201
     total cpu time spent up to now is      109.8 secs

     Computing kpt #:   162  of   201
     total cpu time spent up to now is      110.6 secs

     Computing kpt #:   163  of   201
     total cpu time spent up to now is      111.3 secs

     Computing kpt #:   164  of   201
     total cpu time spent up to now is      112.0 secs

     Computing kpt #:   165  of   201
     total cpu time spent up to now is      112.6 secs

     Computing kpt #:   166  of   201
     total cpu time spent up to now is      113.2 secs

     Computing kpt #:   167  of   201
     total cpu time spent up to now is      113.8 secs

     Computing kpt #:   168  of   201
     total cpu time spent up to now is      114.4 secs

     Computing kpt #:   169  of   201
     total cpu time spent up to now is      115.1 secs

     Computing kpt #:   170  of   201
     total cpu time spent up to now is      115.7 secs

     Computing kpt #:   171  of   201
     total cpu time spent up to now is      116.3 secs

     Computing kpt #:   172  of   201
     total cpu time spent up to now is      116.8 secs

     Computing kpt #:   173  of   201
     total cpu time spent up to now is      117.4 secs

     Computing kpt #:   174  of   201
     total cpu time spent up to now is      117.9 secs

     Computing kpt #:   175  of   201
     total cpu time spent up to now is      118.5 secs

     Computing kpt #:   176  of   201
     total cpu time spent up to now is      119.0 secs

     Computing kpt #:   177  of   201
     total cpu time spent up to now is      119.6 secs

     Computing kpt #:   178  of   201
     total cpu time spent up to now is      120.1 secs

     Computing kpt #:   179  of   201
     total cpu time spent up to now is      120.7 secs

     Computing kpt #:   180  of   201
     total cpu time spent up to now is      121.3 secs

     Computing kpt #:   181  of   201
     total cpu time spent up to now is      121.8 secs

     Computing kpt #:   182  of   201
     total cpu time spent up to now is      122.4 secs

     Computing kpt #:   183  of   201
     total cpu time spent up to now is      123.0 secs

     Computing kpt #:   184  of   201
     total cpu time spent up to now is      123.5 secs

     Computing kpt #:   185  of   201
     total cpu time spent up to now is      124.1 secs

     Computing kpt #:   186  of   201
     total cpu time spent up to now is      124.7 secs

     Computing kpt #:   187  of   201
     total cpu time spent up to now is      125.2 secs

     Computing kpt #:   188  of   201
     total cpu time spent up to now is      125.8 secs

     Computing kpt #:   189  of   201
     total cpu time spent up to now is      126.4 secs

     Computing kpt #:   190  of   201
     total cpu time spent up to now is      127.0 secs

     Computing kpt #:   191  of   201
     total cpu time spent up to now is      127.6 secs

     Computing kpt #:   192  of   201
     total cpu time spent up to now is      128.2 secs

     Computing kpt #:   193  of   201
     total cpu time spent up to now is      128.8 secs

     Computing kpt #:   194  of   201
     total cpu time spent up to now is      129.4 secs

     Computing kpt #:   195  of   201
     total cpu time spent up to now is      130.0 secs

     Computing kpt #:   196  of   201
     total cpu time spent up to now is      130.6 secs

     Computing kpt #:   197  of   201
     total cpu time spent up to now is      131.2 secs

     Computing kpt #:   198  of   201
     total cpu time spent up to now is      131.8 secs

     Computing kpt #:   199  of   201
     total cpu time spent up to now is      132.4 secs

     Computing kpt #:   200  of   201
     total cpu time spent up to now is      133.0 secs

     Computing kpt #:   201  of   201
     total cpu time spent up to now is      133.4 secs

     ethr =  1.25E-10,  avg # of iterations = 52.8

     total cpu time spent up to now is      133.4 secs

     End of band structure calculation

          k = 0.0000 0.0000 1.0000 (  3490 PWs)   bands (ev):

    -5.3128  -1.7858   2.4260   2.4260   6.5320   6.8384  15.6381  15.6381
    16.7307  18.8804

          k = 0.0000 0.0000 0.9750 (  3482 PWs)   bands (ev):

    -5.3205  -1.7747   2.4286   2.4286   6.5301   6.8478  15.6161  15.6161
    16.7104  18.9056

          k = 0.0000 0.0000 0.9500 (  3474 PWs)   bands (ev):

    -5.3431  -1.7416   2.4365   2.4365   6.5255   6.8749  15.5519  15.5519
    16.6509  18.9794

          k = 0.0000 0.0000 0.9250 (  3454 PWs)   bands (ev):

    -5.3797  -1.6874   2.4496   2.4496   6.5206   6.9173  15.4506  15.4506
    16.5556  19.0966

          k = 0.0000 0.0000 0.9000 (  3455 PWs)   bands (ev):

    -5.4291  -1.6135   2.4679   2.4679   6.5176   6.9727  15.3189  15.3189
    16.4296  19.1039

          k = 0.0000 0.0000 0.8750 (  3463 PWs)   bands (ev):

    -5.4896  -1.5216   2.4914   2.4914   6.5184   7.0391  15.1634  15.1634
    16.2778  18.9306

          k = 0.0000 0.0000 0.8500 (  3475 PWs)   bands (ev):

    -5.5595  -1.4133   2.5200   2.5200   6.5239   7.1154  14.9897  14.9897
    16.1051  18.7523

          k = 0.0000 0.0000 0.8250 (  3463 PWs)   bands (ev):

    -5.6370  -1.2906   2.5539   2.5539   6.5349   7.2007  14.8026  14.8026
    15.9154  18.5728

          k = 0.0000 0.0000 0.8000 (  3455 PWs)   bands (ev):

    -5.7205  -1.1551   2.5927   2.5927   6.5517   7.2944  14.6056  14.6056
    15.7121  18.3944

          k = 0.0000 0.0000 0.7750 (  3463 PWs)   bands (ev):

    -5.8085  -1.0082   2.6367   2.6367   6.5746   7.3960  14.4013  14.4013
    15.4981  18.2186

          k = 0.0000 0.0000 0.7500 (  3475 PWs)   bands (ev):

    -5.8997  -0.8515   2.6856   2.6856   6.6036   7.5049  14.1919  14.1919
    15.2757  18.0462

          k = 0.0000 0.0000 0.7250 (  3475 PWs)   bands (ev):

    -5.9930  -0.6860   2.7395   2.7395   6.6388   7.6206  13.9787  13.9787
    15.0471  17.8779

          k = 0.0000 0.0000 0.7000 (  3475 PWs)   bands (ev):

    -6.0874  -0.5127   2.7982   2.7982   6.6802   7.7425  13.7630  13.7630
    14.8143  17.7142

          k = 0.0000 0.0000 0.6750 (  3463 PWs)   bands (ev):

    -6.1822  -0.3327   2.8616   2.8616   6.7276   7.8698  13.5457  13.5457
    14.5791  17.5553

          k = 0.0000 0.0000 0.6500 (  3467 PWs)   bands (ev):

    -6.2764  -0.1466   2.9298   2.9298   6.7811   8.0017  13.3273  13.3273
    14.3433  17.4015

          k = 0.0000 0.0000 0.6250 (  3475 PWs)   bands (ev):

    -6.3697   0.0449   3.0024   3.0024   6.8404   8.1368  13.1084  13.1084
    14.1091  17.2530

          k = 0.0000 0.0000 0.6000 (  3491 PWs)   bands (ev):

    -6.4615   0.2412   3.0795   3.0795   6.9055   8.2737  12.8896  12.8896
    13.8788  17.1098

          k = 0.0000 0.0000 0.5750 (  3495 PWs)   bands (ev):

    -6.5514   0.4419   3.1609   3.1609   6.9762   8.4102  12.6712  12.6712
    13.6550  16.9722

          k = 0.0000 0.0000 0.5500 (  3495 PWs)   bands (ev):

    -6.6390   0.6465   3.2464   3.2464   7.0523   8.5439  12.4534  12.4534
    13.4410  16.8401

          k = 0.0000 0.0000 0.5250 (  3503 PWs)   bands (ev):

    -6.7240   0.8547   3.3359   3.3359   7.1336   8.6712  12.2368  12.2368
    13.2405  16.7137

          k = 0.0000 0.0000 0.5000 (  3511 PWs)   bands (ev):

    -6.8061   1.0661   3.4291   3.4291   7.2198   8.7878  12.0216  12.0216
    13.0585  16.5930

          k = 0.0000 0.0000 0.4750 (  3503 PWs)   bands (ev):

    -6.8851   1.2804   3.5257   3.5257   7.3105   8.8886  11.8081  11.8081
    12.9006  16.4779

          k = 0.0000 0.0000 0.4500 (  3495 PWs)   bands (ev):

    -6.9609   1.4974   3.6256   3.6256   7.4055   8.9672  11.5967  11.5967
    12.7732  16.3687

          k = 0.0000 0.0000 0.4250 (  3503 PWs)   bands (ev):

    -7.0332   1.7168   3.7283   3.7283   7.5042   9.0174  11.3878  11.3878
    12.6832  16.2653

          k = 0.0000 0.0000 0.4000 (  3495 PWs)   bands (ev):

    -7.1020   1.9385   3.8336   3.8336   7.6060   9.0335  11.1819  11.1819
    12.6365  16.1676

          k = 0.0000 0.0000 0.3750 (  3495 PWs)   bands (ev):

    -7.1670   2.1621   3.9410   3.9410   7.7101   9.0122  10.9794  10.9794
    12.6368  16.0081

          k = 0.0000 0.0000 0.3500 (  3507 PWs)   bands (ev):

    -7.2282   2.3876   4.0499   4.0499   7.8153   8.9533  10.7810  10.7810
    12.6848  15.7585

          k = 0.0000 0.0000 0.3250 (  3503 PWs)   bands (ev):

    -7.2855   2.6146   4.1598   4.1598   7.9196   8.8606  10.5873  10.5873
    12.7781  15.5142

          k = 0.0000 0.0000 0.3000 (  3495 PWs)   bands (ev):

    -7.3389   2.8429   4.2701   4.2701   8.0186   8.7422  10.3991  10.3991
    12.9116  15.2768

          k = 0.0000 0.0000 0.2750 (  3495 PWs)   bands (ev):

    -7.3881   3.0723   4.3798   4.3798   8.1012   8.6144  10.2172  10.2172
    13.0791  15.0481

          k = 0.0000 0.0000 0.2500 (  3511 PWs)   bands (ev):

    -7.4333   3.3022   4.4881   4.4881   8.1309   8.5180  10.0427  10.0427
    13.2739  14.8301

          k = 0.0000 0.0000 0.2250 (  3511 PWs)   bands (ev):

    -7.4743   3.5323   4.5939   4.5939   8.0507   8.5143   9.8768   9.8768
    13.4886  14.6260

          k = 0.0000 0.0000 0.2000 (  3511 PWs)   bands (ev):

    -7.5111   3.7618   4.6958   4.6958   7.8881   8.5788   9.7209   9.7209
    13.7132  14.4424

          k = 0.0000 0.0000 0.1750 (  3499 PWs)   bands (ev):

    -7.5436   3.9898   4.7924   4.7924   7.6937   8.6632   9.5764   9.5764
    13.9178  14.3059

          k = 0.0000 0.0000 0.1500 (  3487 PWs)   bands (ev):

    -7.5718   4.2148   4.8820   4.8820   7.4876   8.7497   9.4452   9.4452
    13.9705  14.3455

          k = 0.0000 0.0000 0.1250 (  3495 PWs)   bands (ev):

    -7.5958   4.4344   4.9627   4.9627   7.2788   8.8311   9.3292   9.3292
    13.8730  14.5557

          k = 0.0000 0.0000 0.1000 (  3495 PWs)   bands (ev):

    -7.6154   4.6447   5.0325   5.0325   7.0747   8.9032   9.2303   9.2303
    13.7630  14.7938

          k = 0.0000 0.0000 0.0750 (  3487 PWs)   bands (ev):

    -7.6307   4.8390   5.0895   5.0895   6.8837   8.9628   9.1507   9.1507
    13.6693  15.0221

          k = 0.0000 0.0000 0.0500 (  3479 PWs)   bands (ev):

    -7.6416   5.0051   5.1318   5.1318   6.7193   9.0075   9.0923   9.0923
    13.5992  15.2187

          k = 0.0000 0.0000 0.0250 (  3479 PWs)   bands (ev):

    -7.6482   5.1229   5.1578   5.1578   6.6023   9.0351   9.0565   9.0565
    13.5560  15.3571

          k = 0.0000 0.0000 0.0000 (  3479 PWs)   bands (ev):

    -7.6504   5.1666   5.1666   5.1666   6.5588   9.0445   9.0445   9.0445
    13.5414  15.4080

          k =-0.0125 0.0125 0.0125 (  3479 PWs)   bands (ev):

    -7.6487   5.1261   5.1639   5.1639   6.5914   9.0471   9.0487   9.0487
    13.5523  15.3898

          k =-0.0250 0.0250 0.0250 (  3479 PWs)   bands (ev):

    -7.6438   5.0150   5.1557   5.1557   6.6783   9.0555   9.0614   9.0614
    13.5850  15.3382

          k =-0.0375 0.0375 0.0375 (  3485 PWs)   bands (ev):

    -7.6356   4.8545   5.1422   5.1422   6.7969   9.0714   9.0822   9.0822
    13.6385  15.2607

          k =-0.0500 0.0500 0.0500 (  3491 PWs)   bands (ev):

    -7.6242   4.6627   5.1237   5.1237   6.9271   9.0978   9.1108   9.1108
    13.7117  15.1660

          k =-0.0625 0.0625 0.0625 (  3491 PWs)   bands (ev):

    -7.6095   4.4514   5.1005   5.1005   7.0544   9.1382   9.1465   9.1465
    13.8028  15.0616

          k =-0.0750 0.0750 0.0750 (  3488 PWs)   bands (ev):

    -7.5915   4.2279   5.0730   5.0730   7.1688   9.1888   9.1888   9.1964
    13.9096  14.9530

          k =-0.0875 0.0875 0.0875 (  3485 PWs)   bands (ev):

    -7.5704   3.9965   5.0417   5.0417   7.2638   9.2367   9.2367   9.2759
    14.0292  14.8445

          k =-0.1000 0.1000 0.1000 (  3491 PWs)   bands (ev):

    -7.5461   3.7601   5.0070   5.0070   7.3359   9.2894   9.2894   9.3783
    14.1581  14.7393

          k =-0.1125 0.1125 0.1125 (  3494 PWs)   bands (ev):

    -7.5186   3.5207   4.9695   4.9695   7.3844   9.3458   9.3458   9.5036
    14.2918  14.6396

          k =-0.1250 0.1250 0.1250 (  3497 PWs)   bands (ev):

    -7.4880   3.2798   4.9295   4.9295   7.4108   9.4050   9.4050   9.6498
    14.4243  14.5475

          k =-0.1375 0.1375 0.1375 (  3500 PWs)   bands (ev):

    -7.4544   3.0384   4.8877   4.8877   7.4183   9.4658   9.4658   9.8140
    14.4646  14.4646

          k =-0.1500 0.1500 0.1500 (  3506 PWs)   bands (ev):

    -7.4177   2.7974   4.8443   4.8443   7.4102   9.5271   9.5271   9.9926
    14.3921  14.3921

          k =-0.1625 0.1625 0.1625 (  3500 PWs)   bands (ev):

    -7.3781   2.5575   4.7999   4.7999   7.3900   9.5877   9.5877  10.1825
    14.3315  14.3315

          k =-0.1750 0.1750 0.1750 (  3497 PWs)   bands (ev):

    -7.3356   2.3193   4.7549   4.7549   7.3607   9.6466   9.6466  10.3809
    14.2839  14.2839

          k =-0.1875 0.1875 0.1875 (  3497 PWs)   bands (ev):

    -7.2903   2.0834   4.7095   4.7095   7.3247   9.7026   9.7026  10.5854
    14.2503  14.2503

          k =-0.2000 0.2000 0.2000 (  3503 PWs)   bands (ev):

    -7.2423   1.8502   4.6641   4.6641   7.2838   9.7547   9.7547  10.7940
    14.2316  14.2316

          k =-0.2125 0.2125 0.2125 (  3494 PWs)   bands (ev):

    -7.1918   1.6202   4.6191   4.6191   7.2398   9.8021   9.8021  11.0051
    14.2285  14.2285

          k =-0.2250 0.2250 0.2250 (  3494 PWs)   bands (ev):

    -7.1387   1.3937   4.5746   4.5746   7.1938   9.8440   9.8440  11.2172
    14.2418  14.2418

          k =-0.2375 0.2375 0.2375 (  3491 PWs)   bands (ev):

    -7.0834   1.1713   4.5309   4.5309   7.1468   9.8800   9.8800  11.4290
    14.2718  14.2718

          k =-0.2500 0.2500 0.2500 (  3479 PWs)   bands (ev):

    -7.0258   0.9532   4.4883   4.4883   7.0996   9.9098   9.9098  11.6389
    14.3185  14.3185

          k =-0.2625 0.2625 0.2625 (  3488 PWs)   bands (ev):

    -6.9663   0.7400   4.4469   4.4469   7.0527   9.9333   9.9333  11.8453
    14.3821  14.3821

          k =-0.2750 0.2750 0.2750 (  3476 PWs)   bands (ev):

    -6.9051   0.5319   4.4069   4.4069   7.0067   9.9507   9.9507  12.0462
    14.4622  14.4622

          k =-0.2875 0.2875 0.2875 (  3482 PWs)   bands (ev):

    -6.8424   0.3295   4.3684   4.3684   6.9619   9.9622   9.9622  12.2391
    14.5082  14.5583

          k =-0.3000 0.3000 0.3000 (  3470 PWs)   bands (ev):

    -6.7785   0.1332   4.3315   4.3315   6.9187   9.9685   9.9685  12.4208
    14.4889  14.6697

          k =-0.3125 0.3125 0.3125 (  3476 PWs)   bands (ev):

    -6.7137  -0.0566   4.2965   4.2965   6.8773   9.9700   9.9700  12.5875
    14.4874  14.7959

          k =-0.3250 0.3250 0.3250 (  3476 PWs)   bands (ev):

    -6.6484  -0.2394   4.2633   4.2633   6.8379   9.9676   9.9676  12.7350
    14.5081  14.9358

          k =-0.3375 0.3375 0.3375 (  3476 PWs)   bands (ev):

    -6.5830  -0.4146   4.2321   4.2321   6.8008   9.9619   9.9619  12.8593
    14.5549  15.0887

          k =-0.3500 0.3500 0.3500 (  3476 PWs)   bands (ev):

    -6.5181  -0.5816   4.2029   4.2029   6.7660   9.9536   9.9536  12.9580
    14.6302  15.2537

          k =-0.3625 0.3625 0.3625 (  3470 PWs)   bands (ev):

    -6.4541  -0.7397   4.1759   4.1759   6.7337   9.9434   9.9434  13.0311
    14.7337  15.4298

          k =-0.3750 0.3750 0.3750 (  3470 PWs)   bands (ev):

    -6.3918  -0.8884   4.1510   4.1510   6.7039   9.9320   9.9320  13.0813
    14.8620  15.6161

          k =-0.3875 0.3875 0.3875 (  3477 PWs)   bands (ev):

    -6.3317  -1.0267   4.1284   4.1284   6.6768   9.9200   9.9200  13.1128
    15.0100  15.8118

          k =-0.4000 0.4000 0.4000 (  3477 PWs)   bands (ev):

    -6.2746  -1.1540   4.1080   4.1080   6.6525   9.9078   9.9078  13.1305
    15.1716  16.0158

          k =-0.4125 0.4125 0.4125 (  3474 PWs)   bands (ev):

    -6.2214  -1.2693   4.0900   4.0900   6.6308   9.8960   9.8960  13.1386
    15.3410  16.2271

          k =-0.4250 0.4250 0.4250 (  3486 PWs)   bands (ev):

    -6.1729  -1.3717   4.0743   4.0743   6.6120   9.8851   9.8851  13.1405
    15.5122  16.4443

          k =-0.4375 0.4375 0.4375 (  3486 PWs)   bands (ev):

    -6.1299  -1.4603   4.0610   4.0610   6.5960   9.8752   9.8752  13.1388
    15.6792  16.6656

          k =-0.4500 0.4500 0.4500 (  3486 PWs)   bands (ev):

    -6.0933  -1.5344   4.0501   4.0501   6.5829   9.8667   9.8667  13.1354
    15.8353  16.8881

          k =-0.4625 0.4625 0.4625 (  3471 PWs)   bands (ev):

    -6.0639  -1.5929   4.0415   4.0415   6.5727   9.8599   9.8599  13.1315
    15.9727  17.1063

          k =-0.4750 0.4750 0.4750 (  3471 PWs)   bands (ev):

    -6.0424  -1.6353   4.0354   4.0354   6.5654   9.8549   9.8549  13.1282
    16.0820  17.3086

          k =-0.4875 0.4875 0.4875 (  3471 PWs)   bands (ev):

    -6.0292  -1.6609   4.0318   4.0318   6.5610   9.8519   9.8519  13.1260
    16.1532  17.4686

          k =-0.5000 0.5000 0.5000 (  3444 PWs)   bands (ev):

    -6.0248  -1.6695   4.0306   4.0306   6.5596   9.8509   9.8509  13.1252
    16.1780  17.5344

          k =-0.5000 0.4875 0.5125 (  3462 PWs)   bands (ev):

    -6.0239  -1.6688   4.0162   4.0283   6.5739   9.8465   9.8558  13.1320
    16.1677  17.5134

          k =-0.5000 0.4750 0.5250 (  3464 PWs)   bands (ev):

    -6.0212  -1.6666   3.9743   4.0216   6.6159   9.8335   9.8708  13.1519
    16.1373  17.4487

          k =-0.5000 0.4625 0.5375 (  3466 PWs)   bands (ev):

    -6.0167  -1.6630   3.9076   4.0104   6.6824   9.8125   9.8958  13.1838
    16.0876  17.3467

          k =-0.5000 0.4500 0.5500 (  3464 PWs)   bands (ev):

    -6.0104  -1.6579   3.8202   3.9947   6.7693   9.7846   9.9312  13.2258
    16.0205  17.2215

          k =-0.5000 0.4375 0.5625 (  3472 PWs)   bands (ev):

    -6.0024  -1.6515   3.7162   3.9746   6.8721   9.7510   9.9771  13.2753
    15.9381  17.0866

          k =-0.5000 0.4250 0.5750 (  3476 PWs)   bands (ev):

    -5.9926  -1.6438   3.5997   3.9499   6.9865   9.7132  10.0339  13.3292
    15.8431  16.9517

          k =-0.5000 0.4125 0.5875 (  3478 PWs)   bands (ev):

    -5.9811  -1.6348   3.4740   3.9208   7.1087   9.6726  10.1020  13.3838
    15.7377  16.8240

          k =-0.5000 0.4000 0.6000 (  3474 PWs)   bands (ev):

    -5.9679  -1.6247   3.3419   3.8873   7.2356   9.6305  10.1815  13.4351
    15.6238  16.7095

          k =-0.5000 0.3875 0.6125 (  3478 PWs)   bands (ev):

    -5.9531  -1.6135   3.2056   3.8493   7.3646   9.5883  10.2729  13.4789
    15.5027  16.6138

          k =-0.5000 0.3750 0.6250 (  3472 PWs)   bands (ev):

    -5.9366  -1.6013   3.0672   3.8070   7.4936   9.5473  10.3761  13.5112
    15.3749  16.5420

          k =-0.5000 0.3625 0.6375 (  3476 PWs)   bands (ev):

    -5.9186  -1.5883   2.9280   3.7604   7.6209   9.5084  10.4912  13.5284
    15.2409  16.4982

          k =-0.5000 0.3500 0.6500 (  3474 PWs)   bands (ev):

    -5.8991  -1.5746   2.7894   3.7097   7.7453   9.4726  10.6180  13.5282
    15.1010  16.4850

          k =-0.5000 0.3375 0.6625 (  3466 PWs)   bands (ev):

    -5.8781  -1.5604   2.6524   3.6548   7.8659   9.4408  10.7558  13.5099
    14.9558  16.5029

          k =-0.5000 0.3250 0.6750 (  3472 PWs)   bands (ev):

    -5.8557  -1.5459   2.5179   3.5961   7.9822   9.4136  10.9037  13.4744
    14.8061  16.5504

          k =-0.5000 0.3125 0.6875 (  3474 PWs)   bands (ev):

    -5.8321  -1.5313   2.3868   3.5336   8.0938   9.3917  11.0605  13.4242
    14.6528  16.6238

          k =-0.5000 0.3000 0.7000 (  3468 PWs)   bands (ev):

    -5.8072  -1.5167   2.2598   3.4676   8.2008   9.3755  11.2241  13.3628
    14.4969  16.7183

          k =-0.5000 0.2875 0.7125 (  3470 PWs)   bands (ev):

    -5.7813  -1.5026   2.1376   3.3982   8.3031   9.3656  11.3916  13.2950
    14.3393  16.8277

          k =-0.5000 0.2750 0.7250 (  3470 PWs)   bands (ev):

    -5.7543  -1.4890   2.0209   3.3258   8.4008   9.3622  11.5589  13.2268
    14.1807  16.9449

          k =-0.5000 0.2625 0.7375 (  3466 PWs)   bands (ev):

    -5.7264  -1.4764   1.9103   3.2505   8.4943   9.3659  11.7191  13.1665
    14.0219  17.0620

          k =-0.5000 0.2500 0.7500 (  3456 PWs)   bands (ev):

    -5.6978  -1.4650   1.8064   3.1728   8.5837   9.3768  11.8615  13.1256
    13.8635  17.1714

          k =-0.5000 0.2375 0.7625 (  3470 PWs)   bands (ev):

    -5.6685  -1.4550   1.7097   3.0928   8.6693   9.3953  11.9710  13.1198
    13.7063  17.2677

          k =-0.5000 0.2250 0.7750 (  3474 PWs)   bands (ev):

    -5.6388  -1.4469   1.6209   3.0108   8.7511   9.4214  12.0321  13.1637
    13.5519  17.3497

          k =-0.5000 0.2125 0.7875 (  3480 PWs)   bands (ev):

    -5.6087  -1.4408   1.5404   2.9273   8.8296   9.4553  12.0396  13.2519
    13.4115  17.4191

          k =-0.5000 0.2000 0.8000 (  3484 PWs)   bands (ev):

    -5.5786  -1.4369   1.4686   2.8424   8.9050   9.4970  12.0024  13.2165
    13.4443  17.4788

          k =-0.5000 0.1875 0.8125 (  3478 PWs)   bands (ev):

    -5.5485  -1.4354   1.4060   2.7566   8.9776   9.5461  11.9351  13.0729
    13.6207  17.5312

          k =-0.5000 0.1750 0.8250 (  3478 PWs)   bands (ev):

    -5.5187  -1.4364   1.3528   2.6702   9.0481   9.6023  11.8493  12.9241
    13.8259  17.5779

          k =-0.5000 0.1625 0.8375 (  3478 PWs)   bands (ev):

    -5.4893  -1.4399   1.3091   2.5835   9.1169   9.6649  11.7529  12.7759
    14.0461  17.6197

          k =-0.5000 0.1500 0.8500 (  3474 PWs)   bands (ev):

    -5.4607  -1.4456   1.2750   2.4968   9.1847   9.7333  11.6507  12.6294
    14.2750  17.6568

          k =-0.5000 0.1375 0.8625 (  3474 PWs)   bands (ev):

    -5.4331  -1.4535   1.2505   2.4106   9.2521   9.8064  11.5458  12.4851
    14.5088  17.6890

          k =-0.5000 0.1250 0.8750 (  3474 PWs)   bands (ev):

    -5.4067  -1.4632   1.2354   2.3251   9.3194   9.8835  11.4407  12.3431
    14.7442  17.7157

          k =-0.5000 0.1125 0.8875 (  3468 PWs)   bands (ev):

    -5.3818  -1.4742   1.2293   2.2407   9.3871   9.9635  11.3372  12.2037
    14.9787  17.7359

          k =-0.5000 0.1000 0.9000 (  3462 PWs)   bands (ev):

    -5.3586  -1.4861   1.2317   2.1580   9.4552  10.0451  11.2372  12.0672
    15.2095  17.7489

          k =-0.5000 0.0875 0.9125 (  3464 PWs)   bands (ev):

    -5.3374  -1.4984   1.2422   2.0772   9.5236  10.1266  11.1430  11.9338
    15.4337  17.7539

          k =-0.5000 0.0750 0.9250 (  3460 PWs)   bands (ev):

    -5.3184  -1.5104   1.2600   1.9990   9.5918  10.2054  11.0578  11.8038
    15.6480  17.7505

          k =-0.5000 0.0625 0.9375 (  3460 PWs)   bands (ev):

    -5.3019  -1.5216   1.2842   1.9242   9.6589  10.2774  10.9864  11.6779
    15.8481  17.7390

          k =-0.5000 0.0500 0.9500 (  3456 PWs)   bands (ev):

    -5.2881  -1.5316   1.3136   1.8536   9.7235  10.3360  10.9364  11.5568
    16.0288  17.7206

          k =-0.5000 0.0375 0.9625 (  3458 PWs)   bands (ev):

    -5.2772  -1.5399   1.3464   1.7890   9.7827  10.3736  10.9167  11.4423
    16.1835  17.6980

          k =-0.5000 0.0250 0.9750 (  3458 PWs)   bands (ev):

    -5.2693  -1.5461   1.3792   1.7335   9.8325  10.3877  10.9306  11.3376
    16.3041  17.6752

          k =-0.5000 0.0125 0.9875 (  3448 PWs)   bands (ev):

    -5.2645  -1.5499   1.4061   1.6932   9.8667  10.3869  10.9663  11.2523
    16.3816  17.6579

          k =-0.5000 0.0000 1.0000 (  3448 PWs)   bands (ev):

    -5.2629  -1.5512   1.4171   1.6777   9.8792  10.3845  10.9891  11.2140
    16.4085  17.6513

          k =-0.5062 0.0000 0.9937 (  3448 PWs)   bands (ev):

    -5.2631  -1.5511   1.4159   1.6800   9.8721  10.3786  10.9922  11.2252
    16.4051  17.6522

          k =-0.5125 0.0000 0.9875 (  3448 PWs)   bands (ev):

    -5.2637  -1.5510   1.4123   1.6870   9.8497  10.3634  11.0050  11.2540
    16.3948  17.6543

          k =-0.5188 0.0000 0.9813 (  3456 PWs)   bands (ev):

    -5.2647  -1.5508   1.4063   1.6985   9.8107  10.3440  11.0291  11.2949
    16.3780  17.6571

          k =-0.5250 0.0000 0.9750 (  3464 PWs)   bands (ev):

    -5.2661  -1.5506   1.3982   1.7144   9.7557  10.3245  11.0637  11.3442
    16.3549  17.6597

          k =-0.5312 0.0000 0.9688 (  3464 PWs)   bands (ev):

    -5.2678  -1.5505   1.3885   1.7341   9.6865  10.3072  11.1065  11.3999
    16.3260  17.6607

          k =-0.5375 0.0000 0.9625 (  3464 PWs)   bands (ev):

    -5.2697  -1.5503   1.3774   1.7572   9.6062  10.2922  11.1560  11.4604
    16.2917  17.6591

          k =-0.5437 0.0000 0.9562 (  3464 PWs)   bands (ev):

    -5.2720  -1.5502   1.3654   1.7833   9.5177  10.2793  11.2106  11.5249
    16.2526  17.6534

          k =-0.5500 0.0000 0.9500 (  3466 PWs)   bands (ev):

    -5.2744  -1.5502   1.3528   1.8119   9.4233  10.2678  11.2693  11.5925
    16.2091  17.6425

          k =-0.5563 0.0000 0.9438 (  3462 PWs)   bands (ev):

    -5.2771  -1.5502   1.3398   1.8430   9.3249  10.2571  11.3315  11.6625
    16.1617  17.6254

          k =-0.5625 0.0000 0.9375 (  3458 PWs)   bands (ev):

    -5.2800  -1.5503   1.3266   1.8760   9.2240  10.2469  11.3964  11.7347
    16.1108  17.6014

          k =-0.5687 0.0000 0.9312 (  3461 PWs)   bands (ev):

    -5.2830  -1.5505   1.3134   1.9109   9.1216  10.2370  11.4637  11.8086
    16.0567  17.5703

          k =-0.5750 0.0000 0.9250 (  3461 PWs)   bands (ev):

    -5.2861  -1.5508   1.3002   1.9475   9.0185  10.2272  11.5331  11.8839
    15.9999  17.5321

          k =-0.5813 0.0000 0.9188 (  3461 PWs)   bands (ev):

    -5.2894  -1.5511   1.2871   1.9854   8.9153  10.2176  11.6041  11.9604
    15.9406  17.4873

          k =-0.5875 0.0000 0.9125 (  3459 PWs)   bands (ev):

    -5.2927  -1.5516   1.2743   2.0247   8.8125  10.2080  11.6767  12.0378
    15.8790  17.4363

          k =-0.5938 0.0000 0.9062 (  3460 PWs)   bands (ev):

    -5.2961  -1.5521   1.2617   2.0651   8.7105  10.1986  11.7506  12.1160
    15.8155  17.3800

          k =-0.6000 0.0000 0.9000 (  3459 PWs)   bands (ev):

    -5.2995  -1.5527   1.2495   2.1063   8.6096  10.1893  11.8256  12.1948
    15.7501  17.3190

          k =-0.6062 0.0000 0.8937 (  3463 PWs)   bands (ev):

    -5.3030  -1.5534   1.2376   2.1484   8.5100  10.1801  11.9016  12.2740
    15.6831  17.2541

          k =-0.6125 0.0000 0.8875 (  3463 PWs)   bands (ev):

    -5.3064  -1.5542   1.2260   2.1911   8.4122  10.1711  11.9786  12.3534
    15.6146  17.1859

          k =-0.6188 0.0000 0.8813 (  3465 PWs)   bands (ev):

    -5.3098  -1.5550   1.2149   2.2342   8.3162  10.1624  12.0562  12.4330
    15.5448  17.1151

          k =-0.6250 0.0000 0.8750 (  3459 PWs)   bands (ev):

    -5.3132  -1.5559   1.2042   2.2776   8.2223  10.1538  12.1346  12.5125
    15.4738  17.0421

          k =-0.6312 0.0000 0.8687 (  3467 PWs)   bands (ev):

    -5.3165  -1.5568   1.1940   2.3210   8.1308  10.1456  12.2136  12.5918
    15.4017  16.9676

          k =-0.6375 0.0000 0.8625 (  3467 PWs)   bands (ev):

    -5.3197  -1.5578   1.1842   2.3643   8.0419  10.1376  12.2930  12.6707
    15.3286  16.8921

          k =-0.6438 0.0000 0.8563 (  3474 PWs)   bands (ev):

    -5.3229  -1.5587   1.1749   2.4072   7.9557  10.1300  12.3729  12.7490
    15.2547  16.8159

          k =-0.6500 0.0000 0.8500 (  3473 PWs)   bands (ev):

    -5.3259  -1.5597   1.1661   2.4497   7.8726  10.1227  12.4530  12.8266
    15.1800  16.7395

          k =-0.6562 0.0000 0.8438 (  3465 PWs)   bands (ev):

    -5.3288  -1.5607   1.1578   2.4913   7.7928  10.1158  12.5334  12.9030
    15.1047  16.6634

          k =-0.6625 0.0000 0.8375 (  3477 PWs)   bands (ev):

    -5.3316  -1.5616   1.1500   2.5319   7.7164  10.1092  12.6140  12.9782
    15.0288  16.5879

          k =-0.6687 0.0000 0.8312 (  3477 PWs)   bands (ev):

    -5.3343  -1.5626   1.1427   2.5713   7.6437  10.1030  12.6945  13.0517
    14.9526  16.5136

          k =-0.6750 0.0000 0.8250 (  3477 PWs)   bands (ev):

    -5.3368  -1.5635   1.1359   2.6093   7.5750  10.0973  12.7750  13.1233
    14.8761  16.4410

          k =-0.6813 0.0000 0.8188 (  3477 PWs)   bands (ev):

    -5.3391  -1.5644   1.1296   2.6454   7.5105  10.0920  12.8552  13.1925
    14.7995  16.3704

          k =-0.6875 0.0000 0.8125 (  3479 PWs)   bands (ev):

    -5.3413  -1.5652   1.1239   2.6796   7.4505  10.0871  12.9349  13.2589
    14.7230  16.3024

          k =-0.6937 0.0000 0.8062 (  3473 PWs)   bands (ev):

    -5.3432  -1.5660   1.1187   2.7115   7.3953  10.0826  13.0140  13.3220
    14.6469  16.2378

          k =-0.7000 0.0000 0.8000 (  3471 PWs)   bands (ev):

    -5.3450  -1.5667   1.1140   2.7410   7.3450  10.0786  13.0921  13.3812
    14.5714  16.1769

          k =-0.7063 0.0000 0.7938 (  3471 PWs)   bands (ev):

    -5.3466  -1.5673   1.1099   2.7676   7.2999  10.0750  13.1687  13.4358
    14.4972  16.1207

          k =-0.7125 0.0000 0.7875 (  3472 PWs)   bands (ev):

    -5.3480  -1.5679   1.1063   2.7913   7.2603  10.0719  13.2431  13.4852
    14.4248  16.0697

          k =-0.7188 0.0000 0.7812 (  3472 PWs)   bands (ev):

    -5.3492  -1.5684   1.1033   2.8117   7.2264  10.0693  13.3145  13.5287
    14.3553  16.0248

          k =-0.7250 0.0000 0.7750 (  3478 PWs)   bands (ev):

    -5.3502  -1.5688   1.1008   2.8287   7.1983  10.0672  13.3812  13.5653
    14.2902  15.9867

          k =-0.7312 0.0000 0.7687 (  3478 PWs)   bands (ev):

    -5.3509  -1.5691   1.0989   2.8422   7.1763  10.0655  13.4410  13.5945
    14.2320  15.9561

          k =-0.7375 0.0000 0.7625 (  3480 PWs)   bands (ev):

    -5.3515  -1.5694   1.0975   2.8519   7.1605  10.0643  13.4901  13.6156
    14.1843  15.9338

          k =-0.7438 0.0000 0.7563 (  3480 PWs)   bands (ev):

    -5.3518  -1.5695   1.0967   2.8577   7.1510  10.0636  13.5233  13.6281
    14.1522  15.9202

          k =-0.7500 0.0000 0.7500 (  3480 PWs)   bands (ev):

    -5.3519  -1.5696   1.0964   2.8597   7.1478  10.0633  13.5353  13.6321
    14.1407  15.9156

          k =-0.7312 0.0000 0.7312 (  3484 PWs)   bands (ev):

    -5.3746  -1.5373   1.0391   2.9242   7.2192  10.4292  13.3247  13.4717
    13.8893  15.6902

          k =-0.7125 0.0000 0.7125 (  3484 PWs)   bands (ev):

    -5.4032  -1.5014   0.9994   2.9923   7.2944  10.7868  13.1162  13.3294
    13.6438  15.4716

          k =-0.6937 0.0000 0.6937 (  3488 PWs)   bands (ev):

    -5.4380  -1.4610   0.9774   3.0640   7.3729  11.1233  12.9106  13.2125
    13.4098  15.2600

          k =-0.6750 0.0000 0.6750 (  3494 PWs)   bands (ev):

    -5.4794  -1.4152   0.9730   3.1390   7.4544  11.4159  12.7083  13.0965
    13.2343  15.0561

          k =-0.6562 0.0000 0.6562 (  3492 PWs)   bands (ev):

    -5.5275  -1.3629   0.9856   3.2169   7.5384  11.6311  12.5098  12.8975
    13.2343  14.8601

          k =-0.6375 0.0000 0.6375 (  3480 PWs)   bands (ev):

    -5.5822  -1.3032   1.0145   3.2975   7.6243  11.7418  12.3157  12.6763
    13.3756  14.6726

          k =-0.6188 0.0000 0.6188 (  3478 PWs)   bands (ev):

    -5.6432  -1.2352   1.0587   3.3806   7.7113  11.7566  12.1261  12.4564
    13.6250  14.4940

          k =-0.6000 0.0000 0.6000 (  3478 PWs)   bands (ev):

    -5.7102  -1.1582   1.1174   3.4656   7.7987  11.7097  11.9414  12.2413
    13.9430  14.3247

          k =-0.5813 0.0000 0.5813 (  3468 PWs)   bands (ev):

    -5.7825  -1.0715   1.1894   3.5524   7.8853  11.6313  11.7619  12.0322
    14.1651  14.2961

          k =-0.5625 0.0000 0.5625 (  3472 PWs)   bands (ev):

    -5.8596  -0.9748   1.2737   3.6405   7.9702  11.5391  11.5878  11.8300
    14.0157  14.6619

          k =-0.5437 0.0000 0.5437 (  3469 PWs)   bands (ev):

    -5.9406  -0.8678   1.3694   3.7295   8.0519  11.4191  11.4420  11.6365
    13.8770  15.0239

          k =-0.5250 0.0000 0.5250 (  3469 PWs)   bands (ev):

    -6.0249  -0.7505   1.4756   3.8190   8.1288  11.2561  11.3398  11.4585
    13.7494  15.3675

          k =-0.5062 0.0000 0.5062 (  3487 PWs)   bands (ev):

    -6.1117  -0.6228   1.5914   3.9085   8.1994  11.0988  11.2110  11.3215
    13.6336  15.6765

          k =-0.4875 0.0000 0.4875 (  3485 PWs)   bands (ev):

    -6.2002  -0.4848   1.7160   3.9975   8.2619  10.9474  11.0501  11.2343
    13.5299  15.9328

          k =-0.4688 0.0000 0.4688 (  3487 PWs)   bands (ev):

    -6.2896  -0.3367   1.8486   4.0856   8.3146  10.8019  10.8838  11.1721
    13.4389  16.1183

          k =-0.4500 0.0000 0.4500 (  3489 PWs)   bands (ev):

    -6.3794  -0.1788   1.9886   4.1723   8.3560  10.6622  10.7213  11.1270
    13.3612  16.2195

          k =-0.4312 0.0000 0.4313 (  3489 PWs)   bands (ev):

    -6.4688  -0.0112   2.1353   4.2572   8.3850  10.5286  10.5645  11.0973
    13.2972  16.2326

          k =-0.4125 0.0000 0.4125 (  3485 PWs)   bands (ev):

    -6.5574   0.1657   2.2878   4.3396   8.4009  10.4009  10.4144  11.0815
    13.2475  16.1640

          k =-0.3937 0.0000 0.3937 (  3485 PWs)   bands (ev):

    -6.6445   0.3517   2.4457   4.4193   8.4038  10.2711  10.2791  11.0771
    13.2125  16.0274

          k =-0.3750 0.0000 0.3750 (  3477 PWs)   bands (ev):

    -6.7298   0.5466   2.6082   4.4957   8.3943  10.1351  10.1633  11.0807
    13.1926  15.8415

          k =-0.3562 0.0000 0.3562 (  3487 PWs)   bands (ev):

    -6.8128   0.7499   2.7745   4.5685   8.3734  10.0064  10.0534  11.0873
    13.1883  15.6263

          k =-0.3375 0.0000 0.3375 (  3475 PWs)   bands (ev):

    -6.8931   0.9614   2.9439   4.6373   8.3424   9.8854   9.9493  11.0909
    13.1998  15.4011

          k =-0.3187 0.0000 0.3187 (  3479 PWs)   bands (ev):

    -6.9704   1.1808   3.1155   4.7020   8.3026   9.7721   9.8510  11.0844
    13.2274  15.1824

          k =-0.3000 0.0000 0.3000 (  3481 PWs)   bands (ev):

    -7.0444   1.4077   3.2885   4.7622   8.2555   9.6667   9.7585  11.0603
    13.2713  14.9838

          k =-0.2812 0.0000 0.2812 (  3495 PWs)   bands (ev):

    -7.1149   1.6419   3.4619   4.8178   8.2019   9.5694   9.6718  11.0115
    13.3313  14.8162

          k =-0.2625 0.0000 0.2625 (  3501 PWs)   bands (ev):

    -7.1816   1.8828   3.6346   4.8688   8.1425   9.4805   9.5908  10.9324
    13.4075  14.6873

          k =-0.2437 0.0000 0.2437 (  3501 PWs)   bands (ev):

    -7.2444   2.1302   3.8054   4.9151   8.0778   9.4000   9.5154  10.8204
    13.4997  14.6005

          k =-0.2250 0.0000 0.2250 (  3503 PWs)   bands (ev):

    -7.3031   2.3834   3.9730   4.9569   8.0073   9.3281   9.4457  10.6768
    13.6075  14.5537

          k =-0.2062 0.0000 0.2062 (  3503 PWs)   bands (ev):

    -7.3576   2.6420   4.1360   4.9941   7.9304   9.2651   9.3816  10.5065
    13.7304  14.5384

          k =-0.1875 0.0000 0.1875 (  3507 PWs)   bands (ev):

    -7.4077   2.9052   4.2929   5.0271   7.8458   9.2108   9.3231  10.3171
    13.8677  14.5341

          k =-0.1687 0.0000 0.1687 (  3507 PWs)   bands (ev):

    -7.4532   3.1723   4.4420   5.0560   7.7515   9.1652   9.2701  10.1174
    14.0187  14.4956

          k =-0.1500 0.0000 0.1500 (  3493 PWs)   bands (ev):

    -7.4942   3.4421   4.5816   5.0809   7.6451   9.1282   9.2228   9.9168
    14.1820  14.3840

          k =-0.1312 0.0000 0.1312 (  3485 PWs)   bands (ev):

    -7.5306   3.7132   4.7099   5.1022   7.5242   9.0993   9.1810   9.7244
    14.2308  14.3562

          k =-0.1125 0.0000 0.1125 (  3491 PWs)   bands (ev):

    -7.5622   3.9834   4.8254   5.1201   7.3869   9.0779   9.1448   9.5480
    14.0717  14.5390

          k =-0.0938 0.0000 0.0938 (  3491 PWs)   bands (ev):

    -7.5891   4.2499   4.9262   5.1348   7.2331   9.0631   9.1141   9.3942
    13.9228  14.7271

          k =-0.0750 0.0000 0.0750 (  3491 PWs)   bands (ev):

    -7.6111   4.5077   5.0109   5.1465   7.0659   9.0537   9.0891   9.2671
    13.7924  14.9154

          k =-0.0562 0.0000 0.0562 (  3487 PWs)   bands (ev):

    -7.6283   4.7486   5.0782   5.1554   6.8933   9.0483   9.0696   9.1687
    13.6856  15.0955

          k =-0.0375 0.0000 0.0375 (  3483 PWs)   bands (ev):

    -7.6405   4.9579   5.1271   5.1617   6.7311   9.0457   9.0556   9.0992
    13.6065  15.2531

          k =-0.0187 0.0000 0.0187 (  3479 PWs)   bands (ev):

    -7.6479   5.1094   5.1567   5.1654   6.6071   9.0447   9.0473   9.0581
    13.5578  15.3660

          k = 0.0000 0.0000 0.0000 (  3479 PWs)   bands (ev):

    -7.6504   5.1666   5.1666   5.1666   6.5588   9.0445   9.0445   9.0445
    13.5414  15.4080

     Writing all to output data dir ./SCRATCH/gallium_arsenide.save/

     init_run     :      0.12s CPU      0.12s WALL (       1 calls)
     electrons    :    132.25s CPU    133.27s WALL (       1 calls)

     Called by init_run:
     wfcinit      :      0.00s CPU      0.00s WALL (       1 calls)
     wfcinit:atom :      0.05s CPU      0.09s WALL (     201 calls)
     wfcinit:wfcr :      3.31s CPU      3.43s WALL (     201 calls)
     potinit      :      0.02s CPU      0.01s WALL (       1 calls)
     hinit0       :      0.03s CPU      0.04s WALL (       1 calls)

     Called by electrons:
     c_bands      :    132.25s CPU    133.27s WALL (       1 calls)
     v_of_rho     :      0.02s CPU      0.01s WALL (       1 calls)
     v_h          :      0.00s CPU      0.00s WALL (       1 calls)
     v_xc         :      0.02s CPU      0.00s WALL (       1 calls)

     Called by c_bands:
     init_us_2    :      0.06s CPU      0.07s WALL (     201 calls)
     init_us_2:cp :      0.06s CPU      0.07s WALL (     201 calls)
     cegterg      :    128.72s CPU    129.53s WALL (     624 calls)

     Called by sum_band:

     Called by *egterg:
     cdiaghg      :      1.08s CPU      0.88s WALL (   10808 calls)
     cegterg:over :      8.59s CPU      8.12s WALL (   10607 calls)
     cegterg:upda :      3.58s CPU      3.75s WALL (   10607 calls)
     cegterg:last :      6.17s CPU      6.95s WALL (    6960 calls)
     h_psi        :    110.62s CPU    111.17s WALL (   11432 calls)
     g_psi        :      0.56s CPU      0.60s WALL (   10607 calls)

     Called by h_psi:
     h_psi:calbec :      2.22s CPU      2.08s WALL (   11432 calls)
     vloc_psi     :    106.64s CPU    107.21s WALL (   11432 calls)
     add_vuspsi   :      1.50s CPU      1.55s WALL (   11432 calls)

     General routines
     calbec       :      2.22s CPU      2.03s WALL (   11432 calls)
     fft          :      0.00s CPU      0.00s WALL (       3 calls)
     fftw         :     98.20s CPU     98.94s WALL (  139182 calls)
     davcio       :      0.00s CPU      0.06s WALL (     402 calls)


     PWSCF        :   2m12.44s CPU   2m13.57s WALL


   This run was terminated on:  12:58:38  25May2024            

=------------------------------------------------------------------------------=
   JOB DONE.
=------------------------------------------------------------------------------=
