
     Program BANDS v.7.2 starts on 25May2024 at 12:59:23 

     This program is part of the open-source Quantum ESPRESSO suite
     for quantum simulation of materials; please cite
         "P. Giannozzi et al., J. Phys.:Condens. Matter 21 395502 (2009);
         "P. Giannozzi et al., J. Phys.:Condens. Matter 29 465901 (2017);
         "P. Giannozzi et al., J. Chem. Phys. 152 154105 (2020);
          URL http://www.quantum-espresso.org", 
     in publications or presentations arising from this work. More details at
     http://www.quantum-espresso.org/quote

     Serial version
     8926 MiB available memory on the printing compute node when the environment starts


     Reading xml data from directory:

     ./SCRATCH/gallium_arsenide.save/

     IMPORTANT: XC functional enforced from input :
     Exchange-correlation= PZ
                           (   1   1   0   0   0   0   0)
     Any further DFT definition will be discarded
     Please, verify this is what you really want


     G-vector sticks info
     --------------------
     sticks:   dense  smooth     PW     G-vecs:    dense   smooth      PW
     Sum        1213    1213    349                27725    27725    4285

     Using Slab Decomposition

     Reading collected, re-writing distributed wavefunctions
     high-symmetry point:  0.0000 0.0000 1.0000   x coordinate   0.0000
     high-symmetry point:  0.0000 0.0000 0.0000   x coordinate   1.0000
     high-symmetry point: -0.5000 0.5000 0.5000   x coordinate   1.8660
     high-symmetry point: -0.5000 0.0000 1.0000   x coordinate   2.5731
     high-symmetry point: -0.7500 0.0000 0.7500   x coordinate   2.9267
     high-symmetry point:  0.0000 0.0000 0.0000   x coordinate   3.9873

     Plottable bands (eV) written to file bands_gaas.dat.gnu
     Bands written to file bands_gaas.dat

 **************************************************************************

                    xk=(   0.00000,   0.00000,   1.00000  )

     point group D_2d (-42m)
     there are  5 classes
     the character table:

       E     2S4   C2    2C2'  2s_d 
A_1    1.00  1.00  1.00  1.00  1.00
A_2    1.00  1.00  1.00 -1.00 -1.00
B_1    1.00 -1.00  1.00  1.00 -1.00
B_2    1.00 -1.00  1.00 -1.00  1.00
E      2.00  0.00 -2.00  0.00  0.00

     the symmetry operations in each class and the name of the first element:

     E        1
                                                                 
     2S4      7    8
                                                                 
     C2       2
                                                                 
     2C2'     3    4
                                                                 
     2s_d     5    6
                                                                 

     Band symmetry, D_2d (-42m) point group:

     e(  1 -  1) =     -5.31282  eV     1   --> B_2  X_3  W_2  
     e(  2 -  2) =     -1.78583  eV     1   --> A_1  X_1  W_1  
     e(  3 -  4) =      2.42599  eV     2   --> E    X_5  W_3  
     e(  5 -  5) =      6.53195  eV     1   --> B_2  X_3  W_2  
     e(  6 -  6) =      6.83840  eV     1   --> A_1  X_1  W_1  
     e(  7 -  8) =     15.63812  eV     2   --> E    X_5  W_3  
     e(  9 -  9) =     16.73075  eV     1   --> A_1  X_1  W_1  
     e( 10 - 10) =     18.88035  eV     1   -->   ?

 **************************************************************************

 **************************************************************************

                    xk=(   0.00000,   0.00000,   0.97500  )

     point group C_2v (mm2) 
     there are  4 classes
     the character table:

       E     C2    s_v   s_v' 
A_1    1.00  1.00  1.00  1.00
A_2    1.00  1.00 -1.00 -1.00
B_1    1.00 -1.00  1.00 -1.00
B_2    1.00 -1.00 -1.00  1.00

     the symmetry operations in each class and the name of the first element:

     E        1
                                                                 
     C2       2
                                                                 
     s_v      3
                                                                 
     s_v'     4
                                                                 

     Band symmetry, C_2v (mm2)  point group:

     e(  1 -  1) =     -5.32046  eV     1   --> A_1  D_1  S_1  
     e(  2 -  2) =     -1.77469  eV     1   --> A_1  D_1  S_1  
     e(  3 -  4) =      2.42861  eV     2   --> B_1  D_3  S_3  
     e(  3 -  4) =      2.42861  eV     2   --> B_2  D_4  S_4  
     e(  5 -  5) =      6.53007  eV     1   --> A_1  D_1  S_1  
     e(  6 -  6) =      6.84780  eV     1   --> A_1  D_1  S_1  
     e(  7 -  8) =     15.61608  eV     2   --> B_1  D_3  S_3  
     e(  7 -  8) =     15.61608  eV     2   --> B_2  D_4  S_4  
     e(  9 -  9) =     16.71044  eV     1   --> A_1  D_1  S_1  
     e( 10 - 10) =     18.90560  eV     1   -->   ?

 **************************************************************************

 **************************************************************************

                    xk=(   0.00000,   0.00000,   0.95000  )

     Band symmetry, C_2v (mm2)  point group:

     e(  1 -  1) =     -5.34306  eV     1   --> A_1  D_1  S_1  
     e(  2 -  2) =     -1.74158  eV     1   --> A_1  D_1  S_1  
     e(  3 -  4) =      2.43647  eV     2   --> B_1  D_3  S_3  
     e(  3 -  4) =      2.43647  eV     2   --> B_2  D_4  S_4  
     e(  5 -  5) =      6.52549  eV     1   --> A_1  D_1  S_1  
     e(  6 -  6) =      6.87491  eV     1   --> A_1  D_1  S_1  
     e(  7 -  8) =     15.55190  eV     2   --> B_1  D_3  S_3  
     e(  7 -  8) =     15.55190  eV     2   --> B_2  D_4  S_4  
     e(  9 -  9) =     16.65085  eV     1   --> A_1  D_1  S_1  
     e( 10 - 10) =     18.97939  eV     1   -->   ?

 **************************************************************************

 **************************************************************************

                    xk=(   0.00000,   0.00000,   0.92500  )

     Band symmetry, C_2v (mm2)  point group:

     e(  1 -  1) =     -5.37973  eV     1   --> A_1  D_1  S_1  
     e(  2 -  2) =     -1.68739  eV     1   --> A_1  D_1  S_1  
     e(  3 -  4) =      2.44956  eV     2   --> B_1  D_3  S_3  
     e(  3 -  4) =      2.44956  eV     2   --> B_2  D_4  S_4  
     e(  5 -  5) =      6.52058  eV     1   --> A_1  D_1  S_1  
     e(  6 -  6) =      6.91733  eV     1   --> A_1  D_1  S_1  
     e(  7 -  8) =     15.45065  eV     2   --> B_1  D_3  S_3  
     e(  7 -  8) =     15.45065  eV     2   --> B_2  D_4  S_4  
     e(  9 -  9) =     16.55561  eV     1   --> A_1  D_1  S_1  
     e( 10 - 10) =     19.09660  eV     1   -->   ?

 **************************************************************************

 **************************************************************************

                    xk=(   0.00000,   0.00000,   0.90000  )

     Band symmetry, C_2v (mm2)  point group:

     e(  1 -  1) =     -5.42913  eV     1   --> A_1  D_1  S_1  
     e(  2 -  2) =     -1.61350  eV     1   --> A_1  D_1  S_1  
     e(  3 -  4) =      2.46787  eV     2   --> B_1  D_3  S_3  
     e(  3 -  4) =      2.46787  eV     2   --> B_2  D_4  S_4  
     e(  5 -  5) =      6.51765  eV     1   --> A_1  D_1  S_1  
     e(  6 -  6) =      6.97267  eV     1   --> A_1  D_1  S_1  
     e(  7 -  8) =     15.31893  eV     2   --> B_1  D_3  S_3  
     e(  7 -  8) =     15.31893  eV     2   --> B_2  D_4  S_4  
     e(  9 -  9) =     16.42956  eV     1   --> A_1  D_1  S_1  
     e( 10 - 10) =     19.10392  eV     1   --> A_2  D_2  S_2  

 **************************************************************************

 **************************************************************************

                    xk=(   0.00000,   0.00000,   0.87500  )

     Band symmetry, C_2v (mm2)  point group:

     e(  1 -  1) =     -5.48964  eV     1   --> A_1  D_1  S_1  
     e(  2 -  2) =     -1.52156  eV     1   --> A_1  D_1  S_1  
     e(  3 -  4) =      2.49138  eV     2   --> B_1  D_3  S_3  
     e(  3 -  4) =      2.49138  eV     2   --> B_2  D_4  S_4  
     e(  5 -  5) =      6.51840  eV     1   --> A_1  D_1  S_1  
     e(  6 -  6) =      7.03911  eV     1   --> A_1  D_1  S_1  
     e(  7 -  8) =     15.16336  eV     2   --> B_1  D_3  S_3  
     e(  7 -  8) =     15.16336  eV     2   --> B_2  D_4  S_4  
     e(  9 -  9) =     16.27782  eV     1   --> A_1  D_1  S_1  
     e( 10 - 10) =     18.93059  eV     1   --> A_2  D_2  S_2  

 **************************************************************************

 **************************************************************************

                    xk=(   0.00000,   0.00000,   0.85000  )

     Band symmetry, C_2v (mm2)  point group:

     e(  1 -  1) =     -5.55951  eV     1   --> A_1  D_1  S_1  
     e(  2 -  2) =     -1.41333  eV     1   --> A_1  D_1  S_1  
     e(  3 -  4) =      2.52005  eV     2   --> B_1  D_3  S_3  
     e(  3 -  4) =      2.52005  eV     2   --> B_2  D_4  S_4  
     e(  5 -  5) =      6.52395  eV     1   --> A_1  D_1  S_1  
     e(  6 -  6) =      7.11542  eV     1   --> A_1  D_1  S_1  
     e(  7 -  8) =     14.98971  eV     2   --> B_1  D_3  S_3  
     e(  7 -  8) =     14.98971  eV     2   --> B_2  D_4  S_4  
     e(  9 -  9) =     16.10506  eV     1   --> A_1  D_1  S_1  
     e( 10 - 10) =     18.75228  eV     1   --> A_2  D_2  S_2  

 **************************************************************************

 **************************************************************************

                    xk=(   0.00000,   0.00000,   0.82500  )

     Band symmetry, C_2v (mm2)  point group:

     e(  1 -  1) =     -5.63701  eV     1   --> A_1  D_1  S_1  
     e(  2 -  2) =     -1.29061  eV     1   --> A_1  D_1  S_1  
     e(  3 -  4) =      2.55385  eV     2   --> B_1  D_3  S_3  
     e(  3 -  4) =      2.55385  eV     2   --> B_2  D_4  S_4  
     e(  5 -  5) =      6.53493  eV     1   --> A_1  D_1  S_1  
     e(  6 -  6) =      7.20075  eV     1   --> A_1  D_1  S_1  
     e(  7 -  8) =     14.80258  eV     2   --> B_1  D_3  S_3  
     e(  7 -  8) =     14.80258  eV     2   --> B_2  D_4  S_4  
     e(  9 -  9) =     15.91535  eV     1   --> A_1  D_1  S_1  
     e( 10 - 10) =     18.57279  eV     1   --> A_2  D_2  S_2  

 **************************************************************************

 **************************************************************************

                    xk=(   0.00000,   0.00000,   0.80000  )

     Band symmetry, C_2v (mm2)  point group:

     e(  1 -  1) =     -5.72050  eV     1   --> A_1  D_1  S_1  
     e(  2 -  2) =     -1.15507  eV     1   --> A_1  D_1  S_1  
     e(  3 -  4) =      2.59275  eV     2   --> B_1  D_3  S_3  
     e(  3 -  4) =      2.59275  eV     2   --> B_2  D_4  S_4  
     e(  5 -  5) =      6.55175  eV     1   --> A_1  D_1  S_1  
     e(  6 -  6) =      7.29445  eV     1   --> A_1  D_1  S_1  
     e(  7 -  8) =     14.60556  eV     2   --> B_1  D_3  S_3  
     e(  7 -  8) =     14.60556  eV     2   --> B_2  D_4  S_4  
     e(  9 -  9) =     15.71207  eV     1   --> A_1  D_1  S_1  
     e( 10 - 10) =     18.39441  eV     1   --> A_2  D_2  S_2  

 **************************************************************************

 **************************************************************************

                    xk=(   0.00000,   0.00000,   0.77500  )

     Band symmetry, C_2v (mm2)  point group:

     e(  1 -  1) =     -5.80851  eV     1   --> A_1  D_1  S_1  
     e(  2 -  2) =     -1.00823  eV     1   --> A_1  D_1  S_1  
     e(  3 -  4) =      2.63669  eV     2   --> B_1  D_3  S_3  
     e(  3 -  4) =      2.63669  eV     2   --> B_2  D_4  S_4  
     e(  5 -  5) =      6.57461  eV     1   --> A_1  D_1  S_1  
     e(  6 -  6) =      7.39600  eV     1   --> A_1  D_1  S_1  
     e(  7 -  8) =     14.40132  eV     2   --> B_1  D_3  S_3  
     e(  7 -  8) =     14.40132  eV     2   --> B_2  D_4  S_4  
     e(  9 -  9) =     15.49806  eV     1   --> A_1  D_1  S_1  
     e( 10 - 10) =     18.21856  eV     1   --> A_2  D_2  S_2  

 **************************************************************************

 **************************************************************************

                    xk=(   0.00000,   0.00000,   0.75000  )

     Band symmetry, C_2v (mm2)  point group:

     e(  1 -  1) =     -5.89973  eV     1   --> A_1  D_1  S_1  
     e(  2 -  2) =     -0.85147  eV     1   --> A_1  D_1  S_1  
     e(  3 -  4) =      2.68562  eV     2   --> B_1  D_3  S_3  
     e(  3 -  4) =      2.68562  eV     2   --> B_2  D_4  S_4  
     e(  5 -  5) =      6.60362  eV     1   --> A_1  D_1  S_1  
     e(  6 -  6) =      7.50490  eV     1   --> A_1  D_1  S_1  
     e(  7 -  8) =     14.19187  eV     2   --> B_1  D_3  S_3  
     e(  7 -  8) =     14.19187  eV     2   --> B_2  D_4  S_4  
     e(  9 -  9) =     15.27571  eV     1   --> A_1  D_1  S_1  
     e( 10 - 10) =     18.04619  eV     1   --> A_2  D_2  S_2  

 **************************************************************************

 **************************************************************************

                    xk=(   0.00000,   0.00000,   0.72500  )

     Band symmetry, C_2v (mm2)  point group:

     e(  1 -  1) =     -5.99303  eV     1   --> A_1  D_1  S_1  
     e(  2 -  2) =     -0.68596  eV     1   --> A_1  D_1  S_1  
     e(  3 -  4) =      2.73947  eV     2   --> B_1  D_3  S_3  
     e(  3 -  4) =      2.73947  eV     2   --> B_2  D_4  S_4  
     e(  5 -  5) =      6.63880  eV     1   --> A_1  D_1  S_1  
     e(  6 -  6) =      7.62060  eV     1   --> A_1  D_1  S_1  
     e(  7 -  8) =     13.97873  eV     2   --> B_1  D_3  S_3  
     e(  7 -  8) =     13.97873  eV     2   --> B_2  D_4  S_4  
     e(  9 -  9) =     15.04714  eV     1   --> A_1  D_1  S_1  
     e( 10 - 10) =     17.87792  eV     1   --> A_2  D_2  S_2  

 **************************************************************************

 **************************************************************************

                    xk=(   0.00000,   0.00000,   0.70000  )

     Band symmetry, C_2v (mm2)  point group:

     e(  1 -  1) =     -6.08745  eV     1   --> A_1  D_1  S_1  
     e(  2 -  2) =     -0.51274  eV     1   --> A_1  D_1  S_1  
     e(  3 -  4) =      2.79817  eV     2   --> B_1  D_3  S_3  
     e(  3 -  4) =      2.79817  eV     2   --> B_2  D_4  S_4  
     e(  5 -  5) =      6.68015  eV     1   --> A_1  D_1  S_1  
     e(  6 -  6) =      7.74250  eV     1   --> A_1  D_1  S_1  
     e(  7 -  8) =     13.76303  eV     2   --> B_1  D_3  S_3  
     e(  7 -  8) =     13.76303  eV     2   --> B_2  D_4  S_4  
     e(  9 -  9) =     14.81430  eV     1   --> A_1  D_1  S_1  
     e( 10 - 10) =     17.71419  eV     1   --> A_2  D_2  S_2  

 **************************************************************************

 **************************************************************************

                    xk=(   0.00000,   0.00000,   0.67500  )

     Band symmetry, C_2v (mm2)  point group:

     e(  1 -  1) =     -6.18215  eV     1   --> A_1  D_1  S_1  
     e(  2 -  2) =     -0.33270  eV     1   --> A_1  D_1  S_1  
     e(  3 -  4) =      2.86163  eV     2   --> B_1  D_3  S_3  
     e(  3 -  4) =      2.86163  eV     2   --> B_2  D_4  S_4  
     e(  5 -  5) =      6.72760  eV     1   --> A_1  D_1  S_1  
     e(  6 -  6) =      7.86984  eV     1   --> A_1  D_1  S_1  
     e(  7 -  8) =     13.54565  eV     2   --> B_1  D_3  S_3  
     e(  7 -  8) =     13.54565  eV     2   --> B_2  D_4  S_4  
     e(  9 -  9) =     14.57906  eV     1   --> A_1  D_1  S_1  
     e( 10 - 10) =     17.55531  eV     1   --> A_2  D_2  S_2  

 **************************************************************************

 **************************************************************************

                    xk=(   0.00000,   0.00000,   0.65000  )

     Band symmetry, C_2v (mm2)  point group:

     e(  1 -  1) =     -6.27645  eV     1   --> A_1  D_1  S_1  
     e(  2 -  2) =     -0.14660  eV     1   --> A_1  D_1  S_1  
     e(  3 -  4) =      2.92975  eV     2   --> B_1  D_3  S_3  
     e(  3 -  4) =      2.92975  eV     2   --> B_2  D_4  S_4  
     e(  5 -  5) =      6.78107  eV     1   --> A_1  D_1  S_1  
     e(  6 -  6) =      8.00168  eV     1   --> A_1  D_1  S_1  
     e(  7 -  8) =     13.32727  eV     2   --> B_1  D_3  S_3  
     e(  7 -  8) =     13.32727  eV     2   --> B_2  D_4  S_4  
     e(  9 -  9) =     14.34332  eV     1   --> A_1  D_1  S_1  
     e( 10 - 10) =     17.40152  eV     1   --> A_2  D_2  S_2  

 **************************************************************************

 **************************************************************************

                    xk=(   0.00000,   0.00000,   0.62500  )

     Band symmetry, C_2v (mm2)  point group:

     e(  1 -  1) =     -6.36975  eV     1   --> A_1  D_1  S_1  
     e(  2 -  2) =      0.04490  eV     1   --> A_1  D_1  S_1  
     e(  3 -  4) =      3.00243  eV     2   --> B_1  D_3  S_3  
     e(  3 -  4) =      3.00243  eV     2   --> B_2  D_4  S_4  
     e(  5 -  5) =      6.84043  eV     1   --> A_1  D_1  S_1  
     e(  6 -  6) =      8.13681  eV     1   --> A_1  D_1  S_1  
     e(  7 -  8) =     13.10844  eV     2   --> B_1  D_3  S_3  
     e(  7 -  8) =     13.10844  eV     2   --> B_2  D_4  S_4  
     e(  9 -  9) =     14.10915  eV     1   --> A_1  D_1  S_1  
     e( 10 - 10) =     17.25299  eV     1   --> A_2  D_2  S_2  

 **************************************************************************

 **************************************************************************

                    xk=(   0.00000,   0.00000,   0.60000  )

     Band symmetry, C_2v (mm2)  point group:

     e(  1 -  1) =     -6.46154  eV     1   --> A_1  D_1  S_1  
     e(  2 -  2) =      0.24123  eV     1   --> A_1  D_1  S_1  
     e(  3 -  4) =      3.07953  eV     2   --> B_1  D_3  S_3  
     e(  3 -  4) =      3.07953  eV     2   --> B_2  D_4  S_4  
     e(  5 -  5) =      6.90554  eV     1   --> A_1  D_1  S_1  
     e(  6 -  6) =      8.27367  eV     1   --> A_1  D_1  S_1  
     e(  7 -  8) =     12.88960  eV     2   --> B_1  D_3  S_3  
     e(  7 -  8) =     12.88960  eV     2   --> B_2  D_4  S_4  
     e(  9 -  9) =     13.87882  eV     1   --> A_1  D_1  S_1  
     e( 10 - 10) =     17.10985  eV     1   --> A_2  D_2  S_2  

 **************************************************************************

 **************************************************************************

                    xk=(   0.00000,   0.00000,   0.57500  )

     Band symmetry, C_2v (mm2)  point group:

     e(  1 -  1) =     -6.55141  eV     1   --> A_1  D_1  S_1  
     e(  2 -  2) =      0.44191  eV     1   --> A_1  D_1  S_1  
     e(  3 -  4) =      3.16092  eV     2   --> B_1  D_3  S_3  
     e(  3 -  4) =      3.16092  eV     2   --> B_2  D_4  S_4  
     e(  5 -  5) =      6.97625  eV     1   --> A_1  D_1  S_1  
     e(  6 -  6) =      8.41023  eV     1   --> A_1  D_1  S_1  
     e(  7 -  8) =     12.67115  eV     2   --> B_1  D_3  S_3  
     e(  7 -  8) =     12.67115  eV     2   --> B_2  D_4  S_4  
     e(  9 -  9) =     13.65502  eV     1   --> A_1  D_1  S_1  
     e( 10 - 10) =     16.97220  eV     1   --> A_2  D_2  S_2  

 **************************************************************************

 **************************************************************************

                    xk=(   0.00000,   0.00000,   0.55000  )

     Band symmetry, C_2v (mm2)  point group:

     e(  1 -  1) =     -6.63899  eV     1   --> A_1  D_1  S_1  
     e(  2 -  2) =      0.64652  eV     1   --> A_1  D_1  S_1  
     e(  3 -  4) =      3.24643  eV     2   --> B_1  D_3  S_3  
     e(  3 -  4) =      3.24643  eV     2   --> B_2  D_4  S_4  
     e(  5 -  5) =      7.05235  eV     1   --> A_1  D_1  S_1  
     e(  6 -  6) =      8.54387  eV     1   --> A_1  D_1  S_1  
     e(  7 -  8) =     12.45344  eV     2   --> B_1  D_3  S_3  
     e(  7 -  8) =     12.45344  eV     2   --> B_2  D_4  S_4  
     e(  9 -  9) =     13.44095  eV     1   --> A_1  D_1  S_1  
     e( 10 - 10) =     16.84013  eV     1   --> A_2  D_2  S_2  

 **************************************************************************

 **************************************************************************

                    xk=(   0.00000,   0.00000,   0.52500  )

     Band symmetry, C_2v (mm2)  point group:

     e(  1 -  1) =     -6.72397  eV     1   --> A_1  D_1  S_1  
     e(  2 -  2) =      0.85467  eV     1   --> A_1  D_1  S_1  
     e(  3 -  4) =      3.33588  eV     2   --> B_1  D_3  S_3  
     e(  3 -  4) =      3.33588  eV     2   --> B_2  D_4  S_4  
     e(  5 -  5) =      7.13362  eV     1   --> A_1  D_1  S_1  
     e(  6 -  6) =      8.67118  eV     1   --> A_1  D_1  S_1  
     e(  7 -  8) =     12.23680  eV     2   --> B_1  D_3  S_3  
     e(  7 -  8) =     12.23680  eV     2   --> B_2  D_4  S_4  
     e(  9 -  9) =     13.24052  eV     1   --> A_1  D_1  S_1  
     e( 10 - 10) =     16.71369  eV     1   --> A_2  D_2  S_2  

 **************************************************************************

 **************************************************************************

                    xk=(   0.00000,   0.00000,   0.50000  )

     Band symmetry, C_2v (mm2)  point group:

     e(  1 -  1) =     -6.80610  eV     1   --> A_1  D_1  S_1  
     e(  2 -  2) =      1.06605  eV     1   --> A_1  D_1  S_1  
     e(  3 -  4) =      3.42906  eV     2   --> B_1  D_3  S_3  
     e(  3 -  4) =      3.42906  eV     2   --> B_2  D_4  S_4  
     e(  5 -  5) =      7.21979  eV     1   --> A_1  D_1  S_1  
     e(  6 -  6) =      8.78784  eV     1   --> A_1  D_1  S_1  
     e(  7 -  8) =     12.02156  eV     2   --> B_1  D_3  S_3  
     e(  7 -  8) =     12.02156  eV     2   --> B_2  D_4  S_4  
     e(  9 -  9) =     13.05850  eV     1   --> A_1  D_1  S_1  
     e( 10 - 10) =     16.59295  eV     1   --> A_2  D_2  S_2  

 **************************************************************************

 **************************************************************************

                    xk=(   0.00000,   0.00000,   0.47500  )

     Band symmetry, C_2v (mm2)  point group:

     e(  1 -  1) =     -6.88514  eV     1   --> A_1  D_1  S_1  
     e(  2 -  2) =      1.28037  eV     1   --> A_1  D_1  S_1  
     e(  3 -  4) =      3.52571  eV     2   --> B_1  D_3  S_3  
     e(  3 -  4) =      3.52571  eV     2   --> B_2  D_4  S_4  
     e(  5 -  5) =      7.31055  eV     1   --> A_1  D_1  S_1  
     e(  6 -  6) =      8.88856  eV     1   --> A_1  D_1  S_1  
     e(  7 -  8) =     11.80806  eV     2   --> B_1  D_3  S_3  
     e(  7 -  8) =     11.80806  eV     2   --> B_2  D_4  S_4  
     e(  9 -  9) =     12.90058  eV     1   --> A_1  D_1  S_1  
     e( 10 - 10) =     16.47794  eV     1   --> A_2  D_2  S_2  

 **************************************************************************

 **************************************************************************

                    xk=(   0.00000,   0.00000,   0.45000  )

     Band symmetry, C_2v (mm2)  point group:

     e(  1 -  1) =     -6.96091  eV     1   --> A_1  D_1  S_1  
     e(  2 -  2) =      1.49737  eV     1   --> A_1  D_1  S_1  
     e(  3 -  4) =      3.62558  eV     2   --> B_1  D_3  S_3  
     e(  3 -  4) =      3.62558  eV     2   --> B_2  D_4  S_4  
     e(  5 -  5) =      7.40550  eV     1   --> A_1  D_1  S_1  
     e(  6 -  6) =      8.96722  eV     1   --> A_1  D_1  S_1  
     e(  7 -  8) =     11.59667  eV     2   --> B_1  D_3  S_3  
     e(  7 -  8) =     11.59667  eV     2   --> B_2  D_4  S_4  
     e(  9 -  9) =     12.77324  eV     1   --> A_1  D_1  S_1  
     e( 10 - 10) =     16.36870  eV     1   --> A_2  D_2  S_2  

 **************************************************************************

 **************************************************************************

                    xk=(   0.00000,   0.00000,   0.42500  )

     Band symmetry, C_2v (mm2)  point group:

     e(  1 -  1) =     -7.03323  eV     1   --> A_1  D_1  S_1  
     e(  2 -  2) =      1.71681  eV     1   --> A_1  D_1  S_1  
     e(  3 -  4) =      3.72833  eV     2   --> B_1  D_3  S_3  
     e(  3 -  4) =      3.72833  eV     2   --> B_2  D_4  S_4  
     e(  5 -  5) =      7.50419  eV     1   --> A_1  D_1  S_1  
     e(  6 -  6) =      9.01741  eV     1   --> A_1  D_1  S_1  
     e(  7 -  8) =     11.38779  eV     2   --> B_1  D_3  S_3  
     e(  7 -  8) =     11.38779  eV     2   --> B_2  D_4  S_4  
     e(  9 -  9) =     12.68322  eV     1   --> A_1  D_1  S_1  
     e( 10 - 10) =     16.26526  eV     1   --> A_2  D_2  S_2  

 **************************************************************************

 **************************************************************************

                    xk=(   0.00000,   0.00000,   0.40000  )

     Band symmetry, C_2v (mm2)  point group:

     e(  1 -  1) =     -7.10197  eV     1   --> A_1  D_1  S_1  
     e(  2 -  2) =      1.93847  eV     1   --> A_1  D_1  S_1  
     e(  3 -  4) =      3.83360  eV     2   --> B_1  D_3  S_3  
     e(  3 -  4) =      3.83360  eV     2   --> B_2  D_4  S_4  
     e(  5 -  5) =      7.60600  eV     1   --> A_1  D_1  S_1  
     e(  6 -  6) =      9.03354  eV     1   --> A_1  D_1  S_1  
     e(  7 -  8) =     11.18187  eV     2   --> B_1  D_3  S_3  
     e(  7 -  8) =     11.18187  eV     2   --> B_2  D_4  S_4  
     e(  9 -  9) =     12.63645  eV     1   --> A_1  D_1  S_1  
     e( 10 - 10) =     16.16765  eV     1   --> A_2  D_2  S_2  

 **************************************************************************

 **************************************************************************

                    xk=(   0.00000,   0.00000,   0.37500  )

     Band symmetry, C_2v (mm2)  point group:

     e(  1 -  1) =     -7.16701  eV     1   --> A_1  D_1  S_1  
     e(  2 -  2) =      2.16214  eV     1   --> A_1  D_1  S_1  
     e(  3 -  4) =      3.94096  eV     2   --> B_1  D_3  S_3  
     e(  3 -  4) =      3.94096  eV     2   --> B_2  D_4  S_4  
     e(  5 -  5) =      7.71011  eV     1   --> A_1  D_1  S_1  
     e(  6 -  6) =      9.01218  eV     1   --> A_1  D_1  S_1  
     e(  7 -  8) =     10.97942  eV     2   --> B_1  D_3  S_3  
     e(  7 -  8) =     10.97942  eV     2   --> B_2  D_4  S_4  
     e(  9 -  9) =     12.63675  eV     1   --> A_1  D_1  S_1  
     e( 10 - 10) =     16.00812  eV     1   --> A_1  D_1  S_1  

 **************************************************************************

 **************************************************************************

                    xk=(   0.00000,   0.00000,   0.35000  )

     Band symmetry, C_2v (mm2)  point group:

     e(  1 -  1) =     -7.22823  eV     1   --> A_1  D_1  S_1  
     e(  2 -  2) =      2.38759  eV     1   --> A_1  D_1  S_1  
     e(  3 -  4) =      4.04990  eV     2   --> B_1  D_3  S_3  
     e(  3 -  4) =      4.04990  eV     2   --> B_2  D_4  S_4  
     e(  5 -  5) =      7.81531  eV     1   --> A_1  D_1  S_1  
     e(  6 -  6) =      8.95326  eV     1   --> A_1  D_1  S_1  
     e(  7 -  8) =     10.78101  eV     2   --> B_1  D_3  S_3  
     e(  7 -  8) =     10.78101  eV     2   --> B_2  D_4  S_4  
     e(  9 -  9) =     12.68482  eV     1   --> A_1  D_1  S_1  
     e( 10 - 10) =     15.75852  eV     1   --> A_1  D_1  S_1  

 **************************************************************************

 **************************************************************************

                    xk=(   0.00000,   0.00000,   0.32500  )

     Band symmetry, C_2v (mm2)  point group:

     e(  1 -  1) =     -7.28554  eV     1   --> A_1  D_1  S_1  
     e(  2 -  2) =      2.61461  eV     1   --> A_1  D_1  S_1  
     e(  3 -  4) =      4.15984  eV     2   --> B_1  D_3  S_3  
     e(  3 -  4) =      4.15984  eV     2   --> B_2  D_4  S_4  
     e(  5 -  5) =      7.91955  eV     1   --> A_1  D_1  S_1  
     e(  6 -  6) =      8.86056  eV     1   --> A_1  D_1  S_1  
     e(  7 -  8) =     10.58731  eV     2   --> B_1  D_3  S_3  
     e(  7 -  8) =     10.58731  eV     2   --> B_2  D_4  S_4  
     e(  9 -  9) =     12.77810  eV     1   --> A_1  D_1  S_1  
     e( 10 - 10) =     15.51423  eV     1   --> A_1  D_1  S_1  

 **************************************************************************

 **************************************************************************

                    xk=(   0.00000,   0.00000,   0.30000  )

     Band symmetry, C_2v (mm2)  point group:

     e(  1 -  1) =     -7.33886  eV     1   --> A_1  D_1  S_1  
     e(  2 -  2) =      2.84294  eV     1   --> A_1  D_1  S_1  
     e(  3 -  4) =      4.27009  eV     2   --> B_1  D_3  S_3  
     e(  3 -  4) =      4.27009  eV     2   --> B_2  D_4  S_4  
     e(  5 -  5) =      8.01862  eV     1   --> A_1  D_1  S_1  
     e(  6 -  6) =      8.74222  eV     1   --> A_1  D_1  S_1  
     e(  7 -  8) =     10.39908  eV     2   --> B_1  D_3  S_3  
     e(  7 -  8) =     10.39908  eV     2   --> B_2  D_4  S_4  
     e(  9 -  9) =     12.91162  eV     1   --> A_1  D_1  S_1  
     e( 10 - 10) =     15.27684  eV     1   --> A_1  D_1  S_1  

 **************************************************************************

 **************************************************************************

                    xk=(   0.00000,   0.00000,   0.27500  )

     Band symmetry, C_2v (mm2)  point group:

     e(  1 -  1) =     -7.38814  eV     1   --> A_1  D_1  S_1  
     e(  2 -  2) =      3.07227  eV     1   --> A_1  D_1  S_1  
     e(  3 -  4) =      4.37984  eV     2   --> B_1  D_3  S_3  
     e(  3 -  4) =      4.37984  eV     2   --> B_2  D_4  S_4  
     e(  5 -  5) =      8.10115  eV     1   --> A_1  D_1  S_1  
     e(  6 -  6) =      8.61438  eV     1   --> A_1  D_1  S_1  
     e(  7 -  8) =     10.21721  eV     2   --> B_1  D_3  S_3  
     e(  7 -  8) =     10.21721  eV     2   --> B_2  D_4  S_4  
     e(  9 -  9) =     13.07912  eV     1   --> A_1  D_1  S_1  
     e( 10 - 10) =     15.04809  eV     1   --> A_1  D_1  S_1  

 **************************************************************************

 **************************************************************************

                    xk=(   0.00000,   0.00000,   0.25000  )

     Band symmetry, C_2v (mm2)  point group:

     e(  1 -  1) =     -7.43329  eV     1   --> A_1  D_1  S_1  
     e(  2 -  2) =      3.30222  eV     1   --> A_1  D_1  S_1  
     e(  3 -  4) =      4.48815  eV     2   --> B_1  D_3  S_3  
     e(  3 -  4) =      4.48815  eV     2   --> B_2  D_4  S_4  
     e(  5 -  5) =      8.13092  eV     1   --> A_1  D_1  S_1  
     e(  6 -  6) =      8.51799  eV     1   --> A_1  D_1  S_1  
     e(  7 -  8) =     10.04273  eV     2   --> B_1  D_3  S_3  
     e(  7 -  8) =     10.04273  eV     2   --> B_2  D_4  S_4  
     e(  9 -  9) =     13.27386  eV     1   --> A_1  D_1  S_1  
     e( 10 - 10) =     14.83011  eV     1   --> A_1  D_1  S_1  

 **************************************************************************

 **************************************************************************

                    xk=(   0.00000,   0.00000,   0.22500  )

     Band symmetry, C_2v (mm2)  point group:

     e(  1 -  1) =     -7.47428  eV     1   --> A_1  D_1  S_1  
     e(  2 -  2) =      3.53230  eV     1   --> A_1  D_1  S_1  
     e(  3 -  4) =      4.59390  eV     2   --> B_1  D_3  S_3  
     e(  3 -  4) =      4.59390  eV     2   --> B_2  D_4  S_4  
     e(  5 -  5) =      8.05065  eV     1   --> A_1  D_1  S_1  
     e(  6 -  6) =      8.51432  eV     1   --> A_1  D_1  S_1  
     e(  7 -  8) =      9.87683  eV     2   --> B_1  D_3  S_3  
     e(  7 -  8) =      9.87683  eV     2   --> B_2  D_4  S_4  
     e(  9 -  9) =     13.48858  eV     1   --> A_1  D_1  S_1  
     e( 10 - 10) =     14.62601  eV     1   --> A_1  D_1  S_1  

 **************************************************************************

 **************************************************************************

                    xk=(   0.00000,   0.00000,   0.20000  )

     Band symmetry, C_2v (mm2)  point group:

     e(  1 -  1) =     -7.51106  eV     1   --> A_1  D_1  S_1  
     e(  2 -  2) =      3.76183  eV     1   --> A_1  D_1  S_1  
     e(  3 -  4) =      4.69582  eV     2   --> B_1  D_3  S_3  
     e(  3 -  4) =      4.69582  eV     2   --> B_2  D_4  S_4  
     e(  5 -  5) =      7.88808  eV     1   --> A_1  D_1  S_1  
     e(  6 -  6) =      8.57877  eV     1   --> A_1  D_1  S_1  
     e(  7 -  8) =      9.72087  eV     2   --> B_1  D_3  S_3  
     e(  7 -  8) =      9.72087  eV     2   --> B_2  D_4  S_4  
     e(  9 -  9) =     13.71317  eV     1   --> A_1  D_1  S_1  
     e( 10 - 10) =     14.44236  eV     1   --> A_1  D_1  S_1  

 **************************************************************************

 **************************************************************************

                    xk=(   0.00000,   0.00000,   0.17500  )

     Band symmetry, C_2v (mm2)  point group:

     e(  1 -  1) =     -7.54359  eV     1   --> A_1  D_1  S_1  
     e(  2 -  2) =      3.98982  eV     1   --> A_1  D_1  S_1  
     e(  3 -  4) =      4.79240  eV     2   --> B_1  D_3  S_3  
     e(  3 -  4) =      4.79240  eV     2   --> B_2  D_4  S_4  
     e(  5 -  5) =      7.69372  eV     1   --> A_1  D_1  S_1  
     e(  6 -  6) =      8.66325  eV     1   --> A_1  D_1  S_1  
     e(  7 -  8) =      9.57642  eV     2   --> B_1  D_3  S_3  
     e(  7 -  8) =      9.57642  eV     2   --> B_2  D_4  S_4  
     e(  9 -  9) =     13.91779  eV     1   --> A_1  D_1  S_1  
     e( 10 - 10) =     14.30589  eV     1   --> A_1  D_1  S_1  

 **************************************************************************

 **************************************************************************

                    xk=(   0.00000,   0.00000,   0.15000  )

     Band symmetry, C_2v (mm2)  point group:

     e(  1 -  1) =     -7.57185  eV     1   --> A_1  D_1  S_1  
     e(  2 -  2) =      4.21479  eV     1   --> A_1  D_1  S_1  
     e(  3 -  4) =      4.88196  eV     2   --> B_1  D_3  S_3  
     e(  3 -  4) =      4.88196  eV     2   --> B_2  D_4  S_4  
     e(  5 -  5) =      7.48757  eV     1   --> A_1  D_1  S_1  
     e(  6 -  6) =      8.74974  eV     1   --> A_1  D_1  S_1  
     e(  7 -  8) =      9.44521  eV     2   --> B_1  D_3  S_3  
     e(  7 -  8) =      9.44521  eV     2   --> B_2  D_4  S_4  
     e(  9 -  9) =     13.97051  eV     1   --> A_1  D_1  S_1  
     e( 10 - 10) =     14.34545  eV     1   --> A_1  D_1  S_1  

 **************************************************************************

 **************************************************************************

                    xk=(   0.00000,   0.00000,   0.12500  )

     Band symmetry, C_2v (mm2)  point group:

     e(  1 -  1) =     -7.59580  eV     1   --> A_1  D_1  S_1  
     e(  2 -  2) =      4.43440  eV     1   --> A_1  D_1  S_1  
     e(  3 -  4) =      4.96265  eV     2   --> B_1  D_3  S_3  
     e(  3 -  4) =      4.96265  eV     2   --> B_2  D_4  S_4  
     e(  5 -  5) =      7.27882  eV     1   --> A_1  D_1  S_1  
     e(  6 -  6) =      8.83110  eV     1   --> A_1  D_1  S_1  
     e(  7 -  8) =      9.32917  eV     2   --> B_1  D_3  S_3  
     e(  7 -  8) =      9.32917  eV     2   --> B_2  D_4  S_4  
     e(  9 -  9) =     13.87302  eV     1   --> A_1  D_1  S_1  
     e( 10 - 10) =     14.55572  eV     1   --> A_1  D_1  S_1  

 **************************************************************************

 **************************************************************************

                    xk=(   0.00000,   0.00000,   0.10000  )

     Band symmetry, C_2v (mm2)  point group:

     e(  1 -  1) =     -7.61542  eV     1   --> A_1  D_1  S_1  
     e(  2 -  2) =      4.64474  eV     1   --> A_1  D_1  S_1  
     e(  3 -  4) =      5.03249  eV     2   --> B_1  D_3  S_3  
     e(  3 -  4) =      5.03249  eV     2   --> B_2  D_4  S_4  
     e(  5 -  5) =      7.07465  eV     1   --> A_1  D_1  S_1  
     e(  6 -  6) =      8.90317  eV     1   --> A_1  D_1  S_1  
     e(  7 -  8) =      9.23034  eV     2   --> B_1  D_3  S_3  
     e(  7 -  8) =      9.23034  eV     2   --> B_2  D_4  S_4  
     e(  9 -  9) =     13.76298  eV     1   --> A_1  D_1  S_1  
     e( 10 - 10) =     14.79378  eV     1   --> A_1  D_1  S_1  

 **************************************************************************

 **************************************************************************

                    xk=(   0.00000,   0.00000,   0.07500  )

     Band symmetry, C_2v (mm2)  point group:

     e(  1 -  1) =     -7.63070  eV     1   --> A_1  D_1  S_1  
     e(  2 -  2) =      4.83901  eV     1   --> A_1  D_1  S_1  
     e(  3 -  4) =      5.08949  eV     2   --> B_1  D_3  S_3  
     e(  3 -  4) =      5.08949  eV     2   --> B_2  D_4  S_4  
     e(  5 -  5) =      6.88374  eV     1   --> A_1  D_1  S_1  
     e(  6 -  6) =      8.96282  eV     1   --> A_1  D_1  S_1  
     e(  7 -  8) =      9.15075  eV     2   --> B_1  D_3  S_3  
     e(  7 -  8) =      9.15075  eV     2   --> B_2  D_4  S_4  
     e(  9 -  9) =     13.66930  eV     1   --> A_1  D_1  S_1  
     e( 10 - 10) =     15.02207  eV     1   --> A_1  D_1  S_1  

 **************************************************************************

 **************************************************************************

                    xk=(   0.00000,   0.00000,   0.05000  )

     Band symmetry, C_2v (mm2)  point group:

     e(  1 -  1) =     -7.64162  eV     1   --> A_1  D_1  S_1  
     e(  2 -  2) =      5.00513  eV     1   --> A_1  D_1  S_1  
     e(  3 -  4) =      5.13178  eV     2   --> B_1  D_3  S_3  
     e(  3 -  4) =      5.13178  eV     2   --> B_2  D_4  S_4  
     e(  5 -  5) =      6.71933  eV     1   --> A_1  D_1  S_1  
     e(  6 -  6) =      9.00746  eV     1   --> A_1  D_1  S_1  
     e(  7 -  8) =      9.09229  eV     2   --> B_1  D_3  S_3  
     e(  7 -  8) =      9.09229  eV     2   --> B_2  D_4  S_4  
     e(  9 -  9) =     13.59919  eV     1   --> A_1  D_1  S_1  
     e( 10 - 10) =     15.21867  eV     1   --> A_1  D_1  S_1  

 **************************************************************************

 **************************************************************************

                    xk=(   0.00000,   0.00000,   0.02500  )

     Band symmetry, C_2v (mm2)  point group:

     e(  1 -  1) =     -7.64818  eV     1   --> A_1  D_1  S_1  
     e(  2 -  2) =      5.12290  eV     1   --> A_1  D_1  S_1  
     e(  3 -  4) =      5.15784  eV     2   --> B_1  D_3  S_3  
     e(  3 -  4) =      5.15784  eV     2   --> B_2  D_4  S_4  
     e(  5 -  5) =      6.60233  eV     1   --> A_1  D_1  S_1  
     e(  6 -  6) =      9.03511  eV     1   --> A_1  D_1  S_1  
     e(  7 -  8) =      9.05652  eV     2   --> B_1  D_3  S_3  
     e(  7 -  8) =      9.05652  eV     2   --> B_2  D_4  S_4  
     e(  9 -  9) =     13.55598  eV     1   --> A_1  D_1  S_1  
     e( 10 - 10) =     15.35707  eV     1   --> A_1  D_1  S_1  

 **************************************************************************

 **************************************************************************

                    xk=(   0.00000,   0.00000,   0.00000  )

     point group T_d (-43m) 
     there are  5 classes
     the character table:

       E     8C3   3C2   6S4   6s_d 
A_1    1.00  1.00  1.00  1.00  1.00
A_2    1.00  1.00  1.00 -1.00 -1.00
E      2.00 -1.00  2.00  0.00  0.00
T_1    3.00  0.00 -1.00  1.00 -1.00
T_2    3.00  0.00 -1.00 -1.00  1.00

     the symmetry operations in each class and the name of the first element:

     E        1
                                                                 
     8C3      5    7    8    6   12    9   10   11
                                                                 
     3C2      2    3    4
                                                                 
     6S4     15   16   20   19   23   24
                                                                 
     6s_d    13   14   17   18   21   22
                                                                 

     Band symmetry, T_d (-43m)  point group:

     e(  1 -  1) =     -7.65037  eV     1   --> A_1  G_1  P_1  
     e(  2 -  4) =      5.16665  eV     3   --> T_2  G_15 P_4  
     e(  5 -  5) =      6.55880  eV     1   --> A_1  G_1  P_1  
     e(  6 -  8) =      9.04447  eV     3   --> T_2  G_15 P_4  
     e(  9 -  9) =     13.54139  eV     1   --> A_1  G_1  P_1  
     e( 10 - 10) =     15.40799  eV     1   -->   ?

 **************************************************************************

 **************************************************************************

                    xk=(  -0.01250,   0.01250,   0.01250  )

     point group C_3v (3m)  
     there are  3 classes
     the character table:

       E     2C3   3s_v 
A_1    1.00  1.00  1.00
A_2    1.00  1.00 -1.00
E      2.00 -1.00  0.00

     the symmetry operations in each class and the name of the first element:

     E        1
                                                                 
     2C3      2    3
                                                                 
     3s_v     4    5    6
                                                                 

     Band symmetry, C_3v (3m)   point group:

     e(  1 -  1) =     -7.64873  eV     1   --> A_1  L_1       
     e(  2 -  2) =      5.12610  eV     1   --> A_1  L_1       
     e(  3 -  4) =      5.16390  eV     2   --> E    L_3       
     e(  5 -  5) =      6.59141  eV     1   --> A_1  L_1       
     e(  6 -  6) =      9.04707  eV     1   --> A_1  L_1       
     e(  7 -  8) =      9.04872  eV     2   --> E    L_3       
     e(  9 -  9) =     13.55234  eV     1   --> A_1  L_1       
     e( 10 - 10) =     15.38976  eV     1   -->   ?

 **************************************************************************

 **************************************************************************

                    xk=(  -0.02500,   0.02500,   0.02500  )

     Band symmetry, C_3v (3m)   point group:

     e(  1 -  1) =     -7.64381  eV     1   --> A_1  L_1       
     e(  2 -  2) =      5.01499  eV     1   --> A_1  L_1       
     e(  3 -  4) =      5.15570  eV     2   --> E    L_3       
     e(  5 -  5) =      6.67827  eV     1   --> A_1  L_1       
     e(  6 -  6) =      9.05546  eV     1   --> A_1  L_1       
     e(  7 -  8) =      9.06139  eV     2   --> E    L_3       
     e(  9 -  9) =     13.58497  eV     1   --> A_1  L_1       
     e( 10 - 10) =     15.33816  eV     1   -->   ?

 **************************************************************************

 **************************************************************************

                    xk=(  -0.03750,   0.03750,   0.03750  )

     Band symmetry, C_3v (3m)   point group:

     e(  1 -  1) =     -7.63562  eV     1   --> A_1  L_1       
     e(  2 -  2) =      4.85448  eV     1   --> A_1  L_1       
     e(  3 -  4) =      5.14222  eV     2   --> E    L_3       
     e(  5 -  5) =      6.79692  eV     1   --> A_1  L_1       
     e(  6 -  6) =      9.07141  eV     1   --> A_1  L_1       
     e(  7 -  8) =      9.08221  eV     2   --> E    L_3       
     e(  9 -  9) =     13.63850  eV     1   --> A_1  L_1       
     e( 10 - 10) =     15.26072  eV     1   -->   ?

 **************************************************************************

 **************************************************************************

                    xk=(  -0.05000,   0.05000,   0.05000  )

     Band symmetry, C_3v (3m)   point group:

     e(  1 -  1) =     -7.62417  eV     1   --> A_1  L_1       
     e(  2 -  2) =      4.66269  eV     1   --> A_1  L_1       
     e(  3 -  4) =      5.12371  eV     2   --> E    L_3       
     e(  5 -  5) =      6.92713  eV     1   --> A_1  L_1       
     e(  6 -  6) =      9.09778  eV     1   --> A_1  L_1       
     e(  7 -  8) =      9.11078  eV     2   --> E    L_3       
     e(  9 -  9) =     13.71169  eV     1   --> A_1  L_1       
     e( 10 - 10) =     15.16604  eV     1   -->   ?

 **************************************************************************

 **************************************************************************

                    xk=(  -0.06250,   0.06250,   0.06250  )

     Band symmetry, C_3v (3m)   point group:

     e(  1 -  1) =     -7.60947  eV     1   --> A_1  L_1       
     e(  2 -  2) =      4.45142  eV     1   --> A_1  L_1       
     e(  3 -  4) =      5.10052  eV     2   --> E    L_3       
     e(  5 -  5) =      7.05441  eV     1   --> A_1  L_1       
     e(  6 -  6) =      9.13817  eV     1   --> A_1  L_1       
     e(  7 -  8) =      9.14653  eV     2   --> E    L_3       
     e(  9 -  9) =     13.80280  eV     1   --> A_1  L_1       
     e( 10 - 10) =     15.06156  eV     1   -->   ?

 **************************************************************************

 **************************************************************************

                    xk=(  -0.07500,   0.07500,   0.07500  )

     Band symmetry, C_3v (3m)   point group:

     e(  1 -  1) =     -7.59153  eV     1   --> A_1  L_1       
     e(  2 -  2) =      4.22787  eV     1   --> A_1  L_1       
     e(  3 -  4) =      5.07304  eV     2   --> E    L_3       
     e(  5 -  5) =      7.16884  eV     1   --> A_1  L_1       
     e(  6 -  7) =      9.18877  eV     2   --> E    L_3       
     e(  8 -  8) =      9.19645  eV     1   --> A_1  L_1       
     e(  9 -  9) =     13.90959  eV     1   --> A_1  L_1       
     e( 10 - 10) =     14.95298  eV     1   -->   ?

 **************************************************************************

 **************************************************************************

                    xk=(  -0.08750,   0.08750,   0.08750  )

     Band symmetry, C_3v (3m)   point group:

     e(  1 -  1) =     -7.57039  eV     1   --> A_1  L_1       
     e(  2 -  2) =      3.99647  eV     1   --> A_1  L_1       
     e(  3 -  4) =      5.04172  eV     2   --> E    L_3       
     e(  5 -  5) =      7.26385  eV     1   --> A_1  L_1       
     e(  6 -  7) =      9.23668  eV     2   --> E    L_3       
     e(  8 -  8) =      9.27587  eV     1   --> A_1  L_1       
     e(  9 -  9) =     14.02923  eV     1   --> A_1  L_1       
     e( 10 - 10) =     14.84450  eV     1   -->   ?

 **************************************************************************

 **************************************************************************

                    xk=(  -0.10000,   0.10000,   0.10000  )

     Band symmetry, C_3v (3m)   point group:

     e(  1 -  1) =     -7.54607  eV     1   --> A_1  L_1       
     e(  2 -  2) =      3.76009  eV     1   --> A_1  L_1       
     e(  3 -  4) =      5.00704  eV     2   --> E    L_3       
     e(  5 -  5) =      7.33592  eV     1   --> A_1  L_1       
     e(  6 -  7) =      9.28936  eV     2   --> E    L_3       
     e(  8 -  8) =      9.37829  eV     1   --> A_1  L_1       
     e(  9 -  9) =     14.15813  eV     1   --> A_1  L_1       
     e( 10 - 10) =     14.73926  eV     1   -->   ?

 **************************************************************************

 **************************************************************************

                    xk=(  -0.11250,   0.11250,   0.11250  )

     Band symmetry, C_3v (3m)   point group:

     e(  1 -  1) =     -7.51860  eV     1   --> A_1  L_1       
     e(  2 -  2) =      3.52073  eV     1   --> A_1  L_1       
     e(  3 -  4) =      4.96949  eV     2   --> E    L_3       
     e(  5 -  5) =      7.38438  eV     1   --> A_1  L_1       
     e(  6 -  7) =      9.34582  eV     2   --> E    L_3       
     e(  8 -  8) =      9.50357  eV     1   --> A_1  L_1       
     e(  9 -  9) =     14.29175  eV     1   --> A_1  L_1       
     e( 10 - 10) =     14.63962  eV     1   -->   ?

 **************************************************************************

 **************************************************************************

                    xk=(  -0.12500,   0.12500,   0.12500  )

     Band symmetry, C_3v (3m)   point group:

     e(  1 -  1) =     -7.48801  eV     1   --> A_1  L_1       
     e(  2 -  2) =      3.27982  eV     1   --> A_1  L_1       
     e(  3 -  4) =      4.92955  eV     2   --> E    L_3       
     e(  5 -  5) =      7.41083  eV     1   --> A_1  L_1       
     e(  6 -  7) =      9.40500  eV     2   --> E    L_3       
     e(  8 -  8) =      9.64982  eV     1   --> A_1  L_1       
     e(  9 -  9) =     14.42425  eV     1   --> A_1  L_1       
     e( 10 - 10) =     14.54752  eV     1   -->   ?

 **************************************************************************

 **************************************************************************

                    xk=(  -0.13750,   0.13750,   0.13750  )

     Band symmetry, C_3v (3m)   point group:

     e(  1 -  1) =     -7.45437  eV     1   --> A_1  L_1       
     e(  2 -  2) =      3.03842  eV     1   --> A_1  L_1       
     e(  3 -  4) =      4.88768  eV     2   --> E    L_3       
     e(  5 -  5) =      7.41827  eV     1   --> A_1  L_1       
     e(  6 -  7) =      9.46581  eV     2   --> E    L_3       
     e(  8 -  8) =      9.81397  eV     1   --> A_1  L_1       
     e(  9 - 10) =     14.46456  eV     2   --> E    L_3       

 **************************************************************************

 **************************************************************************

                    xk=(  -0.15000,   0.15000,   0.15000  )

     Band symmetry, C_3v (3m)   point group:

     e(  1 -  1) =     -7.41771  eV     1   --> A_1  L_1       
     e(  2 -  2) =      2.79742  eV     1   --> A_1  L_1       
     e(  3 -  4) =      4.84434  eV     2   --> E    L_3       
     e(  5 -  5) =      7.41021  eV     1   --> A_1  L_1       
     e(  6 -  7) =      9.52710  eV     2   --> E    L_3       
     e(  8 -  8) =      9.99263  eV     1   --> A_1  L_1       
     e(  9 - 10) =     14.39214  eV     2   --> E    L_3       

 **************************************************************************

 **************************************************************************

                    xk=(  -0.16250,   0.16250,   0.16250  )

     Band symmetry, C_3v (3m)   point group:

     e(  1 -  1) =     -7.37810  eV     1   --> A_1  L_1       
     e(  2 -  2) =      2.55753  eV     1   --> A_1  L_1       
     e(  3 -  4) =      4.79994  eV     2   --> E    L_3       
     e(  5 -  5) =      7.39003  eV     1   --> A_1  L_1       
     e(  6 -  7) =      9.58773  eV     2   --> E    L_3       
     e(  8 -  8) =     10.18254  eV     1   --> A_1  L_1       
     e(  9 - 10) =     14.33154  eV     2   --> E    L_3       

 **************************************************************************

 **************************************************************************

                    xk=(  -0.17500,   0.17500,   0.17500  )

     Band symmetry, C_3v (3m)   point group:

     e(  1 -  1) =     -7.33561  eV     1   --> A_1  L_1       
     e(  2 -  2) =      2.31934  eV     1   --> A_1  L_1       
     e(  3 -  4) =      4.75487  eV     2   --> E    L_3       
     e(  5 -  5) =      7.36070  eV     1   --> A_1  L_1       
     e(  6 -  7) =      9.64657  eV     2   --> E    L_3       
     e(  8 -  8) =     10.38090  eV     1   --> A_1  L_1       
     e(  9 - 10) =     14.28390  eV     2   --> E    L_3       

 **************************************************************************

 **************************************************************************

                    xk=(  -0.18750,   0.18750,   0.18750  )

     Band symmetry, C_3v (3m)   point group:

     e(  1 -  1) =     -7.29033  eV     1   --> A_1  L_1       
     e(  2 -  2) =      2.08341  eV     1   --> A_1  L_1       
     e(  3 -  4) =      4.70949  eV     2   --> E    L_3       
     e(  5 -  5) =      7.32465  eV     1   --> A_1  L_1       
     e(  6 -  7) =      9.70255  eV     2   --> E    L_3       
     e(  8 -  8) =     10.58535  eV     1   --> A_1  L_1       
     e(  9 - 10) =     14.25026  eV     2   --> E    L_3       

 **************************************************************************

 **************************************************************************

                    xk=(  -0.20000,   0.20000,   0.20000  )

     Band symmetry, C_3v (3m)   point group:

     e(  1 -  1) =     -7.24234  eV     1   --> A_1  L_1       
     e(  2 -  2) =      1.85019  eV     1   --> A_1  L_1       
     e(  3 -  4) =      4.66413  eV     2   --> E    L_3       
     e(  5 -  5) =      7.28384  eV     1   --> A_1  L_1       
     e(  6 -  7) =      9.75467  eV     2   --> E    L_3       
     e(  8 -  8) =     10.79396  eV     1   --> A_1  L_1       
     e(  9 - 10) =     14.23155  eV     2   --> E    L_3       

 **************************************************************************

 **************************************************************************

                    xk=(  -0.21250,   0.21250,   0.21250  )

     Band symmetry, C_3v (3m)   point group:

     e(  1 -  1) =     -7.19176  eV     1   --> A_1  L_1       
     e(  2 -  2) =      1.62016  eV     1   --> A_1  L_1       
     e(  3 -  4) =      4.61908  eV     2   --> E    L_3       
     e(  5 -  5) =      7.23983  eV     1   --> A_1  L_1       
     e(  6 -  7) =      9.80206  eV     2   --> E    L_3       
     e(  8 -  8) =     11.00507  eV     1   --> A_1  L_1       
     e(  9 - 10) =     14.22854  eV     2   --> E    L_3       

 **************************************************************************

 **************************************************************************

                    xk=(  -0.22500,   0.22500,   0.22500  )

     Band symmetry, C_3v (3m)   point group:

     e(  1 -  1) =     -7.13872  eV     1   --> A_1  L_1       
     e(  2 -  2) =      1.39371  eV     1   --> A_1  L_1       
     e(  3 -  4) =      4.57461  eV     2   --> E    L_3       
     e(  5 -  5) =      7.19384  eV     1   --> A_1  L_1       
     e(  6 -  7) =      9.84402  eV     2   --> E    L_3       
     e(  8 -  8) =     11.21722  eV     1   --> A_1  L_1       
     e(  9 - 10) =     14.24181  eV     2   --> E    L_3       

 **************************************************************************

 **************************************************************************

                    xk=(  -0.23750,   0.23750,   0.23750  )

     Band symmetry, C_3v (3m)   point group:

     e(  1 -  1) =     -7.08335  eV     1   --> A_1  L_1       
     e(  2 -  2) =      1.17127  eV     1   --> A_1  L_1       
     e(  3 -  4) =      4.53095  eV     2   --> E    L_3       
     e(  5 -  5) =      7.14683  eV     1   --> A_1  L_1       
     e(  6 -  7) =      9.88004  eV     2   --> E    L_3       
     e(  8 -  8) =     11.42900  eV     1   --> A_1  L_1       
     e(  9 - 10) =     14.27175  eV     2   --> E    L_3       

 **************************************************************************

 **************************************************************************

                    xk=(  -0.25000,   0.25000,   0.25000  )

     Band symmetry, C_3v (3m)   point group:

     e(  1 -  1) =     -7.02583  eV     1   --> A_1  L_1       
     e(  2 -  2) =      0.95322  eV     1   --> A_1  L_1       
     e(  3 -  4) =      4.48832  eV     2   --> E    L_3       
     e(  5 -  5) =      7.09958  eV     1   --> A_1  L_1       
     e(  6 -  7) =      9.90982  eV     2   --> E    L_3       
     e(  8 -  8) =     11.63893  eV     1   --> A_1  L_1       
     e(  9 - 10) =     14.31854  eV     2   --> E    L_3       

 **************************************************************************

 **************************************************************************

                    xk=(  -0.26250,   0.26250,   0.26250  )

     Band symmetry, C_3v (3m)   point group:

     e(  1 -  1) =     -6.96634  eV     1   --> A_1  L_1       
     e(  2 -  2) =      0.73997  eV     1   --> A_1  L_1       
     e(  3 -  4) =      4.44690  eV     2   --> E    L_3       
     e(  5 -  5) =      7.05269  eV     1   --> A_1  L_1       
     e(  6 -  7) =      9.93331  eV     2   --> E    L_3       
     e(  8 -  8) =     11.84534  eV     1   --> A_1  L_1       
     e(  9 - 10) =     14.38210  eV     2   --> E    L_3       

 **************************************************************************

 **************************************************************************

                    xk=(  -0.27500,   0.27500,   0.27500  )

     Band symmetry, C_3v (3m)   point group:

     e(  1 -  1) =     -6.90511  eV     1   --> A_1  L_1       
     e(  2 -  2) =      0.53192  eV     1   --> A_1  L_1       
     e(  3 -  4) =      4.40686  eV     2   --> E    L_3       
     e(  5 -  5) =      7.00666  eV     1   --> A_1  L_1       
     e(  6 -  7) =      9.95066  eV     2   --> E    L_3       
     e(  8 -  8) =     12.04624  eV     1   --> A_1  L_1       
     e(  9 - 10) =     14.46216  eV     2   --> E    L_3       

 **************************************************************************

 **************************************************************************

                    xk=(  -0.28750,   0.28750,   0.28750  )

     Band symmetry, C_3v (3m)   point group:

     e(  1 -  1) =     -6.84239  eV     1   --> A_1  L_1       
     e(  2 -  2) =      0.32951  eV     1   --> A_1  L_1       
     e(  3 -  4) =      4.36836  eV     2   --> E    L_3       
     e(  5 -  5) =      6.96187  eV     1   --> A_1  L_1       
     e(  6 -  7) =      9.96220  eV     2   --> E    L_3       
     e(  8 -  8) =     12.23911  eV     1   --> A_1  L_1       
     e(  9 -  9) =     14.50818  eV     1   --> A_1  L_1       
     e( 10 - 10) =     14.55825  eV     1   -->   ?

 **************************************************************************

 **************************************************************************

                    xk=(  -0.30000,   0.30000,   0.30000  )

     Band symmetry, C_3v (3m)   point group:

     e(  1 -  1) =     -6.77846  eV     1   --> A_1  L_1       
     e(  2 -  2) =      0.13316  eV     1   --> A_1  L_1       
     e(  3 -  4) =      4.33152  eV     2   --> E    L_3       
     e(  5 -  5) =      6.91866  eV     1   --> A_1  L_1       
     e(  6 -  7) =      9.96845  eV     2   --> E    L_3       
     e(  8 -  8) =     12.42081  eV     1   --> A_1  L_1       
     e(  9 -  9) =     14.48893  eV     1   --> A_1  L_1       
     e( 10 - 10) =     14.66974  eV     1   -->   ?

 **************************************************************************

 **************************************************************************

                    xk=(  -0.31250,   0.31250,   0.31250  )

     Band symmetry, C_3v (3m)   point group:

     e(  1 -  1) =     -6.71366  eV     1   --> A_1  L_1       
     e(  2 -  2) =     -0.05664  eV     1   --> A_1  L_1       
     e(  3 -  4) =      4.29646  eV     2   --> E    L_3       
     e(  5 -  5) =      6.87727  eV     1   --> A_1  L_1       
     e(  6 -  7) =      9.97002  eV     2   --> E    L_3       
     e(  8 -  8) =     12.58753  eV     1   --> A_1  L_1       
     e(  9 -  9) =     14.48740  eV     1   --> A_1  L_1       
     e( 10 - 10) =     14.79587  eV     1   -->   ?

 **************************************************************************

 **************************************************************************

                    xk=(  -0.32500,   0.32500,   0.32500  )

     Band symmetry, C_3v (3m)   point group:

     e(  1 -  1) =     -6.64836  eV     1   --> A_1  L_1       
     e(  2 -  2) =     -0.23941  eV     1   --> A_1  L_1       
     e(  3 -  4) =      4.26328  eV     2   --> E    L_3       
     e(  5 -  5) =      6.83792  eV     1   --> A_1  L_1       
     e(  6 -  7) =      9.96758  eV     2   --> E    L_3       
     e(  8 -  8) =     12.73501  eV     1   --> A_1  L_1       
     e(  9 -  9) =     14.50806  eV     1   --> A_1  L_1       
     e( 10 - 10) =     14.93583  eV     1   -->   ?

 **************************************************************************

 **************************************************************************

                    xk=(  -0.33750,   0.33750,   0.33750  )

     Band symmetry, C_3v (3m)   point group:

     e(  1 -  1) =     -6.58300  eV     1   --> A_1  L_1       
     e(  2 -  2) =     -0.41458  eV     1   --> A_1  L_1       
     e(  3 -  4) =      4.23208  eV     2   --> E    L_3       
     e(  5 -  5) =      6.80078  eV     1   --> A_1  L_1       
     e(  6 -  7) =      9.96186  eV     2   --> E    L_3       
     e(  8 -  8) =     12.85933  eV     1   --> A_1  L_1       
     e(  9 -  9) =     14.55490  eV     1   --> A_1  L_1       
     e( 10 - 10) =     15.08872  eV     1   -->   ?

 **************************************************************************

 **************************************************************************

                    xk=(  -0.35000,   0.35000,   0.35000  )

     Band symmetry, C_3v (3m)   point group:

     e(  1 -  1) =     -6.51807  eV     1   --> A_1  L_1       
     e(  2 -  2) =     -0.58157  eV     1   --> A_1  L_1       
     e(  3 -  4) =      4.20292  eV     2   --> E    L_3       
     e(  5 -  5) =      6.76599  eV     1   --> A_1  L_1       
     e(  6 -  7) =      9.95356  eV     2   --> E    L_3       
     e(  8 -  8) =     12.95802  eV     1   --> A_1  L_1       
     e(  9 -  9) =     14.63023  eV     1   --> A_1  L_1       
     e( 10 - 10) =     15.25367  eV     1   -->   ?

 **************************************************************************

 **************************************************************************

                    xk=(  -0.36250,   0.36250,   0.36250  )

     Band symmetry, C_3v (3m)   point group:

     e(  1 -  1) =     -6.45411  eV     1   --> A_1  L_1       
     e(  2 -  2) =     -0.73974  eV     1   --> A_1  L_1       
     e(  3 -  4) =      4.17589  eV     2   --> E    L_3       
     e(  5 -  5) =      6.73368  eV     1   --> A_1  L_1       
     e(  6 -  7) =      9.94339  eV     2   --> E    L_3       
     e(  8 -  8) =     13.03111  eV     1   --> A_1  L_1       
     e(  9 -  9) =     14.73367  eV     1   --> A_1  L_1       
     e( 10 - 10) =     15.42977  eV     1   -->   ?

 **************************************************************************

 **************************************************************************

                    xk=(  -0.37500,   0.37500,   0.37500  )

     Band symmetry, C_3v (3m)   point group:

     e(  1 -  1) =     -6.39176  eV     1   --> A_1  L_1       
     e(  2 -  2) =     -0.88838  eV     1   --> A_1  L_1       
     e(  3 -  4) =      4.15103  eV     2   --> E    L_3       
     e(  5 -  5) =      6.70394  eV     1   --> A_1  L_1       
     e(  6 -  7) =      9.93199  eV     2   --> E    L_3       
     e(  8 -  8) =     13.08127  eV     1   --> A_1  L_1       
     e(  9 -  9) =     14.86198  eV     1   --> A_1  L_1       
     e( 10 - 10) =     15.61610  eV     1   -->   ?

 **************************************************************************

 **************************************************************************

                    xk=(  -0.38750,   0.38750,   0.38750  )

     Band symmetry, C_3v (3m)   point group:

     e(  1 -  1) =     -6.33168  eV     1   --> A_1  L_1       
     e(  2 -  2) =     -1.02673  eV     1   --> A_1  L_1       
     e(  3 -  4) =      4.12840  eV     2   --> E    L_3       
     e(  5 -  5) =      6.67684  eV     1   --> A_1  L_1       
     e(  6 -  7) =      9.91995  eV     2   --> E    L_3       
     e(  8 -  8) =     13.11283  eV     1   --> A_1  L_1       
     e(  9 -  9) =     15.00995  eV     1   --> A_1  L_1       
     e( 10 - 10) =     15.81177  eV     1   -->   ?

 **************************************************************************

 **************************************************************************

                    xk=(  -0.40000,   0.40000,   0.40000  )

     Band symmetry, C_3v (3m)   point group:

     e(  1 -  1) =     -6.27464  eV     1   --> A_1  L_1       
     e(  2 -  2) =     -1.15398  eV     1   --> A_1  L_1       
     e(  3 -  4) =      4.10805  eV     2   --> E    L_3       
     e(  5 -  5) =      6.65245  eV     1   --> A_1  L_1       
     e(  6 -  7) =      9.90782  eV     2   --> E    L_3       
     e(  8 -  8) =     13.13054  eV     1   --> A_1  L_1       
     e(  9 -  9) =     15.17162  eV     1   --> A_1  L_1       
     e( 10 - 10) =     16.01579  eV     1   -->   ?

 **************************************************************************

 **************************************************************************

                    xk=(  -0.41250,   0.41250,   0.41250  )

     Band symmetry, C_3v (3m)   point group:

     e(  1 -  1) =     -6.22144  eV     1   --> A_1  L_1       
     e(  2 -  2) =     -1.26926  eV     1   --> A_1  L_1       
     e(  3 -  4) =      4.09000  eV     2   --> E    L_3       
     e(  5 -  5) =      6.63083  eV     1   --> A_1  L_1       
     e(  6 -  7) =      9.89605  eV     2   --> E    L_3       
     e(  8 -  8) =     13.13864  eV     1   --> A_1  L_1       
     e(  9 -  9) =     15.34098  eV     1   --> A_1  L_1       
     e( 10 - 10) =     16.22707  eV     1   -->   ?

 **************************************************************************

 **************************************************************************

                    xk=(  -0.42500,   0.42500,   0.42500  )

     Band symmetry, C_3v (3m)   point group:

     e(  1 -  1) =     -6.17291  eV     1   --> A_1  L_1       
     e(  2 -  2) =     -1.37168  eV     1   --> A_1  L_1       
     e(  3 -  4) =      4.07431  eV     2   --> E    L_3       
     e(  5 -  5) =      6.61202  eV     1   --> A_1  L_1       
     e(  6 -  7) =      9.88506  eV     2   --> E    L_3       
     e(  8 -  8) =     13.14055  eV     1   --> A_1  L_1       
     e(  9 -  9) =     15.51218  eV     1   --> A_1  L_1       
     e( 10 - 10) =     16.44430  eV     1   -->   ?

 **************************************************************************

 **************************************************************************

                    xk=(  -0.43750,   0.43750,   0.43750  )

     Band symmetry, C_3v (3m)   point group:

     e(  1 -  1) =     -6.12994  eV     1   --> A_1  L_1       
     e(  2 -  2) =     -1.46034  eV     1   --> A_1  L_1       
     e(  3 -  4) =      4.06098  eV     2   --> E    L_3       
     e(  5 -  5) =      6.59604  eV     1   --> A_1  L_1       
     e(  6 -  7) =      9.87519  eV     2   --> E    L_3       
     e(  8 -  8) =     13.13884  eV     1   --> A_1  L_1       
     e(  9 -  9) =     15.67919  eV     1   --> A_1  L_1       
     e( 10 - 10) =     16.66562  eV     1   -->   ?

 **************************************************************************

 **************************************************************************

                    xk=(  -0.45000,   0.45000,   0.45000  )

     Band symmetry, C_3v (3m)   point group:

     e(  1 -  1) =     -6.09335  eV     1   --> A_1  L_1       
     e(  2 -  2) =     -1.53435  eV     1   --> A_1  L_1       
     e(  3 -  4) =      4.05005  eV     2   --> E    L_3       
     e(  5 -  5) =      6.58294  eV     1   --> A_1  L_1       
     e(  6 -  7) =      9.86674  eV     2   --> E    L_3       
     e(  8 -  8) =     13.13539  eV     1   --> A_1  L_1       
     e(  9 -  9) =     15.83532  eV     1   --> A_1  L_1       
     e( 10 - 10) =     16.88808  eV     1   -->   ?

 **************************************************************************

 **************************************************************************

                    xk=(  -0.46250,   0.46250,   0.46250  )

     Band symmetry, C_3v (3m)   point group:

     e(  1 -  1) =     -6.06394  eV     1   --> A_1  L_1       
     e(  2 -  2) =     -1.59290  eV     1   --> A_1  L_1       
     e(  3 -  4) =      4.04154  eV     2   --> E    L_3       
     e(  5 -  5) =      6.57273  eV     1   --> A_1  L_1       
     e(  6 -  7) =      9.85993  eV     2   --> E    L_3       
     e(  8 -  8) =     13.13155  eV     1   --> A_1  L_1       
     e(  9 -  9) =     15.97267  eV     1   --> A_1  L_1       
     e( 10 - 10) =     17.10626  eV     1   -->   ?

 **************************************************************************

 **************************************************************************

                    xk=(  -0.47500,   0.47500,   0.47500  )

     Band symmetry, C_3v (3m)   point group:

     e(  1 -  1) =     -6.04239  eV     1   --> A_1  L_1       
     e(  2 -  2) =     -1.63527  eV     1   --> A_1  L_1       
     e(  3 -  4) =      4.03544  eV     2   --> E    L_3       
     e(  5 -  5) =      6.56542  eV     1   --> A_1  L_1       
     e(  6 -  7) =      9.85495  eV     2   --> E    L_3       
     e(  8 -  8) =     13.12821  eV     1   --> A_1  L_1       
     e(  9 -  9) =     16.08195  eV     1   --> A_1  L_1       
     e( 10 - 10) =     17.30863  eV     1   -->   ?

 **************************************************************************

 **************************************************************************

                    xk=(  -0.48750,   0.48750,   0.48750  )

     Band symmetry, C_3v (3m)   point group:

     e(  1 -  1) =     -6.02924  eV     1   --> A_1  L_1       
     e(  2 -  2) =     -1.66093  eV     1   --> A_1  L_1       
     e(  3 -  4) =      4.03178  eV     2   --> E    L_3       
     e(  5 -  5) =      6.56104  eV     1   --> A_1  L_1       
     e(  6 -  7) =      9.85191  eV     2   --> E    L_3       
     e(  8 -  8) =     13.12599  eV     1   --> A_1  L_1       
     e(  9 -  9) =     16.15317  eV     1   --> A_1  L_1       
     e( 10 - 10) =     17.46862  eV     1   -->   ?

 **************************************************************************

 **************************************************************************

                    xk=(  -0.50000,   0.50000,   0.50000  )

     Band symmetry, C_3v (3m)   point group:

     e(  1 -  1) =     -6.02481  eV     1   --> A_1  L_1       
     e(  2 -  2) =     -1.66952  eV     1   --> A_1  L_1       
     e(  3 -  4) =      4.03056  eV     2   --> E    L_3       
     e(  5 -  5) =      6.55958  eV     1   --> A_1  L_1       
     e(  6 -  7) =      9.85088  eV     2   --> E    L_3       
     e(  8 -  8) =     13.12522  eV     1   --> A_1  L_1       
     e(  9 -  9) =     16.17802  eV     1   --> A_1  L_1       
     e( 10 - 10) =     17.53440  eV     1   -->   ?

 **************************************************************************

 **************************************************************************

                    xk=(  -0.50000,   0.48750,   0.51250  )

     point group C_1 (1)    
     there are  1 classes
     the character table:

       E    
A      1.00

     the symmetry operations in each class and the name of the first element:

     E        1
                                                                 

     Band symmetry, C_1 (1)     point group:

     e(  1 -  1) =     -6.02391  eV     1   --> A              
     e(  2 -  2) =     -1.66879  eV     1   --> A              
     e(  3 -  3) =      4.01621  eV     1   --> A              
     e(  4 -  4) =      4.02832  eV     1   --> A              
     e(  5 -  5) =      6.57393  eV     1   --> A              
     e(  6 -  6) =      9.84647  eV     1   --> A              
     e(  7 -  7) =      9.85585  eV     1   --> A              
     e(  8 -  8) =     13.13199  eV     1   --> A              
     e(  9 -  9) =     16.16775  eV     1   --> A              
     e( 10 - 10) =     17.51337  eV     1   --> A              

 **************************************************************************

 **************************************************************************

                    xk=(  -0.50000,   0.47500,   0.52500  )

     Band symmetry, C_1 (1)     point group:

     e(  1 -  1) =     -6.02121  eV     1   --> A              
     e(  2 -  2) =     -1.66660  eV     1   --> A              
     e(  3 -  3) =      3.97426  eV     1   --> A              
     e(  4 -  4) =      4.02160  eV     1   --> A              
     e(  5 -  5) =      6.61589  eV     1   --> A              
     e(  6 -  6) =      9.83345  eV     1   --> A              
     e(  7 -  7) =      9.87079  eV     1   --> A              
     e(  8 -  8) =     13.15192  eV     1   --> A              
     e(  9 -  9) =     16.13726  eV     1   --> A              
     e( 10 - 10) =     17.44870  eV     1   --> A              

 **************************************************************************

 **************************************************************************

                    xk=(  -0.50000,   0.46250,   0.53750  )

     Band symmetry, C_1 (1)     point group:

     e(  1 -  1) =     -6.01672  eV     1   --> A              
     e(  2 -  2) =     -1.66298  eV     1   --> A              
     e(  3 -  3) =      3.90759  eV     1   --> A              
     e(  4 -  4) =      4.01041  eV     1   --> A              
     e(  5 -  5) =      6.68240  eV     1   --> A              
     e(  6 -  6) =      9.81250  eV     1   --> A              
     e(  7 -  7) =      9.89584  eV     1   --> A              
     e(  8 -  8) =     13.18382  eV     1   --> A              
     e(  9 -  9) =     16.08759  eV     1   --> A              
     e( 10 - 10) =     17.34665  eV     1   --> A              

 **************************************************************************

 **************************************************************************

                    xk=(  -0.50000,   0.45000,   0.55000  )

     Band symmetry, C_1 (1)     point group:

     e(  1 -  1) =     -6.01044  eV     1   --> A              
     e(  2 -  2) =     -1.65794  eV     1   --> A              
     e(  3 -  3) =      3.82018  eV     1   --> A              
     e(  4 -  4) =      3.99473  eV     1   --> A              
     e(  5 -  5) =      6.76929  eV     1   --> A              
     e(  6 -  6) =      9.78461  eV     1   --> A              
     e(  7 -  7) =      9.93119  eV     1   --> A              
     e(  8 -  8) =     13.22580  eV     1   --> A              
     e(  9 -  9) =     16.02046  eV     1   --> A              
     e( 10 - 10) =     17.22151  eV     1   --> A              

 **************************************************************************

 **************************************************************************

                    xk=(  -0.50000,   0.43750,   0.56250  )

     Band symmetry, C_1 (1)     point group:

     e(  1 -  1) =     -6.00240  eV     1   --> A              
     e(  2 -  2) =     -1.65153  eV     1   --> A              
     e(  3 -  3) =      3.71624  eV     1   --> A              
     e(  4 -  4) =      3.97457  eV     1   --> A              
     e(  5 -  5) =      6.87207  eV     1   --> A              
     e(  6 -  6) =      9.75105  eV     1   --> A              
     e(  7 -  7) =      9.97712  eV     1   --> A              
     e(  8 -  8) =     13.27530  eV     1   --> A              
     e(  9 -  9) =     15.93814  eV     1   --> A              
     e( 10 - 10) =     17.08662  eV     1   --> A              

 **************************************************************************

 **************************************************************************

                    xk=(  -0.50000,   0.42500,   0.57500  )

     Band symmetry, C_1 (1)     point group:

     e(  1 -  1) =     -5.99262  eV     1   --> A              
     e(  2 -  2) =     -1.64381  eV     1   --> A              
     e(  3 -  3) =      3.59971  eV     1   --> A              
     e(  4 -  4) =      3.94993  eV     1   --> A              
     e(  5 -  5) =      6.98646  eV     1   --> A              
     e(  6 -  6) =      9.71322  eV     1   --> A              
     e(  7 -  7) =     10.03394  eV     1   --> A              
     e(  8 -  8) =     13.32917  eV     1   --> A              
     e(  9 -  9) =     15.84312  eV     1   --> A              
     e( 10 - 10) =     16.95170  eV     1   --> A              

 **************************************************************************

 **************************************************************************

                    xk=(  -0.50000,   0.41250,   0.58750  )

     Band symmetry, C_1 (1)     point group:

     e(  1 -  1) =     -5.98111  eV     1   --> A              
     e(  2 -  2) =     -1.63484  eV     1   --> A              
     e(  3 -  3) =      3.47398  eV     1   --> A              
     e(  4 -  4) =      3.92083  eV     1   --> A              
     e(  5 -  5) =      7.10870  eV     1   --> A              
     e(  6 -  6) =      9.67257  eV     1   --> A              
     e(  7 -  7) =     10.10197  eV     1   --> A              
     e(  8 -  8) =     13.38379  eV     1   --> A              
     e(  9 -  9) =     15.73774  eV     1   --> A              
     e( 10 - 10) =     16.82398  eV     1   --> A              

 **************************************************************************

 **************************************************************************

                    xk=(  -0.50000,   0.40000,   0.60000  )

     Band symmetry, C_1 (1)     point group:

     e(  1 -  1) =     -5.96791  eV     1   --> A              
     e(  2 -  2) =     -1.62470  eV     1   --> A              
     e(  3 -  3) =      3.34186  eV     1   --> A              
     e(  4 -  4) =      3.88728  eV     1   --> A              
     e(  5 -  5) =      7.23562  eV     1   --> A              
     e(  6 -  6) =      9.63049  eV     1   --> A              
     e(  7 -  7) =     10.18154  eV     1   --> A              
     e(  8 -  8) =     13.43511  eV     1   --> A              
     e(  9 -  9) =     15.62384  eV     1   --> A              
     e( 10 - 10) =     16.70949  eV     1   --> A              

 **************************************************************************

 **************************************************************************

                    xk=(  -0.50000,   0.38750,   0.61250  )

     Band symmetry, C_1 (1)     point group:

     e(  1 -  1) =     -5.95307  eV     1   --> A              
     e(  2 -  2) =     -1.61349  eV     1   --> A              
     e(  3 -  3) =      3.20564  eV     1   --> A              
     e(  4 -  4) =      3.84933  eV     1   --> A              
     e(  5 -  5) =      7.36461  eV     1   --> A              
     e(  6 -  6) =      9.58832  eV     1   --> A              
     e(  7 -  7) =     10.27287  eV     1   --> A              
     e(  8 -  8) =     13.47894  eV     1   --> A              
     e(  9 -  9) =     15.50267  eV     1   --> A              
     e( 10 - 10) =     16.61380  eV     1   --> A              

 **************************************************************************

 **************************************************************************

                    xk=(  -0.50000,   0.37500,   0.62500  )

     Band symmetry, C_1 (1)     point group:

     e(  1 -  1) =     -5.93661  eV     1   --> A              
     e(  2 -  2) =     -1.60131  eV     1   --> A              
     e(  3 -  3) =      3.06719  eV     1   --> A              
     e(  4 -  4) =      3.80702  eV     1   --> A              
     e(  5 -  5) =      7.49358  eV     1   --> A              
[...]
     e( 10 - 10) =     16.02744  eV     1   --> A'             

 **************************************************************************

 **************************************************************************

                    xk=(  -0.37500,   0.00000,   0.37500  )

     Band symmetry, C_s (m)     point group:

     e(  1 -  1) =     -6.72979  eV     1   --> A'             
     e(  2 -  2) =      0.54656  eV     1   --> A'             
     e(  3 -  3) =      2.60817  eV     1   --> A'             
     e(  4 -  4) =      4.49569  eV     1   --> A''            
     e(  5 -  5) =      8.39433  eV     1   --> A'             
     e(  6 -  6) =     10.13509  eV     1   --> A'             
     e(  7 -  7) =     10.16329  eV     1   --> A''            
     e(  8 -  8) =     11.08066  eV     1   --> A'             
     e(  9 -  9) =     13.19261  eV     1   --> A''            
     e( 10 - 10) =     15.84146  eV     1   --> A'             

 **************************************************************************

 **************************************************************************

                    xk=(  -0.35625,   0.00000,   0.35625  )

     Band symmetry, C_s (m)     point group:

     e(  1 -  1) =     -6.81275  eV     1   --> A'             
     e(  2 -  2) =      0.74987  eV     1   --> A'             
     e(  3 -  3) =      2.77447  eV     1   --> A'             
     e(  4 -  4) =      4.56849  eV     1   --> A''            
     e(  5 -  5) =      8.37340  eV     1   --> A'             
     e(  6 -  6) =     10.00645  eV     1   --> A'             
     e(  7 -  7) =     10.05335  eV     1   --> A''            
     e(  8 -  8) =     11.08726  eV     1   --> A'             
     e(  9 -  9) =     13.18830  eV     1   --> A''            
     e( 10 - 10) =     15.62632  eV     1   --> A'             

 **************************************************************************

 **************************************************************************

                    xk=(  -0.33750,   0.00000,   0.33750  )

     Band symmetry, C_s (m)     point group:

     e(  1 -  1) =     -6.89305  eV     1   --> A'             
     e(  2 -  2) =      0.96139  eV     1   --> A'             
     e(  3 -  3) =      2.94386  eV     1   --> A'             
     e(  4 -  4) =      4.63735  eV     1   --> A''            
     e(  5 -  5) =      8.34237  eV     1   --> A'             
     e(  6 -  6) =      9.88538  eV     1   --> A'             
     e(  7 -  7) =      9.94927  eV     1   --> A''            
     e(  8 -  8) =     11.09086  eV     1   --> A'             
     e(  9 -  9) =     13.19984  eV     1   --> A''            
     e( 10 - 10) =     15.40114  eV     1   --> A'             

 **************************************************************************

 **************************************************************************

                    xk=(  -0.31875,   0.00000,   0.31875  )

     Band symmetry, C_s (m)     point group:

     e(  1 -  1) =     -6.97036  eV     1   --> A'             
     e(  2 -  2) =      1.18078  eV     1   --> A'             
     e(  3 -  3) =      3.11551  eV     1   --> A'             
     e(  4 -  4) =      4.70198  eV     1   --> A''            
     e(  5 -  5) =      8.30264  eV     1   --> A'             
     e(  6 -  6) =      9.77206  eV     1   --> A'             
     e(  7 -  7) =      9.85101  eV     1   --> A''            
     e(  8 -  8) =     11.08440  eV     1   --> A'             
     e(  9 -  9) =     13.22745  eV     1   --> A''            
     e( 10 - 10) =     15.18242  eV     1   --> A'             

 **************************************************************************

 **************************************************************************

                    xk=(  -0.30000,   0.00000,   0.30000  )

     Band symmetry, C_s (m)     point group:

     e(  1 -  1) =     -7.04439  eV     1   --> A'             
     e(  2 -  2) =      1.40772  eV     1   --> A'             
     e(  3 -  3) =      3.28852  eV     1   --> A'             
     e(  4 -  4) =      4.76218  eV     1   --> A''            
     e(  5 -  5) =      8.25545  eV     1   --> A'             
     e(  6 -  6) =      9.66668  eV     1   --> A'             
     e(  7 -  7) =      9.75853  eV     1   --> A''            
     e(  8 -  8) =     11.06034  eV     1   --> A'             
     e(  9 -  9) =     13.27127  eV     1   --> A''            
     e( 10 - 10) =     14.98382  eV     1   --> A'             

 **************************************************************************

 **************************************************************************

                    xk=(  -0.28125,   0.00000,   0.28125  )

     Band symmetry, C_s (m)     point group:

     e(  1 -  1) =     -7.11489  eV     1   --> A'             
     e(  2 -  2) =      1.64186  eV     1   --> A'             
     e(  3 -  3) =      3.46190  eV     1   --> A'             
     e(  4 -  4) =      4.81781  eV     1   --> A''            
     e(  5 -  5) =      8.20186  eV     1   --> A'             
     e(  6 -  6) =      9.56942  eV     1   --> A'             
     e(  7 -  7) =      9.67179  eV     1   --> A''            
     e(  8 -  8) =     11.01151  eV     1   --> A'             
     e(  9 -  9) =     13.33133  eV     1   --> A''            
     e( 10 - 10) =     14.81625  eV     1   --> A'             

 **************************************************************************

 **************************************************************************

                    xk=(  -0.26250,   0.00000,   0.26250  )

     Band symmetry, C_s (m)     point group:

     e(  1 -  1) =     -7.18164  eV     1   --> A'             
     e(  2 -  2) =      1.88282  eV     1   --> A'             
     e(  3 -  3) =      3.63459  eV     1   --> A'             
     e(  4 -  4) =      4.86879  eV     1   --> A''            
     e(  5 -  5) =      8.14254  eV     1   --> A'             
     e(  6 -  6) =      9.48046  eV     1   --> A'             
     e(  7 -  7) =      9.59076  eV     1   --> A''            
     e(  8 -  8) =     10.93236  eV     1   --> A'             
     e(  9 -  9) =     13.40755  eV     1   --> A''            
     e( 10 - 10) =     14.68734  eV     1   --> A'             

 **************************************************************************

 **************************************************************************

                    xk=(  -0.24375,   0.00000,   0.24375  )

     Band symmetry, C_s (m)     point group:

     e(  1 -  1) =     -7.24445  eV     1   --> A'             
     e(  2 -  2) =      2.13016  eV     1   --> A'             
     e(  3 -  3) =      3.80539  eV     1   --> A'             
     e(  4 -  4) =      4.91513  eV     1   --> A''            
     e(  5 -  5) =      8.07776  eV     1   --> A'             
     e(  6 -  6) =      9.39998  eV     1   --> A'             
     e(  7 -  7) =      9.51539  eV     1   --> A''            
     e(  8 -  8) =     10.82036  eV     1   --> A'             
     e(  9 -  9) =     13.49972  eV     1   --> A''            
     e( 10 - 10) =     14.60045  eV     1   --> A'             

 **************************************************************************

 **************************************************************************

                    xk=(  -0.22500,   0.00000,   0.22500  )

     Band symmetry, C_s (m)     point group:

     e(  1 -  1) =     -7.30315  eV     1   --> A'             
     e(  2 -  2) =      2.38341  eV     1   --> A'             
     e(  3 -  3) =      3.97300  eV     1   --> A'             
     e(  4 -  4) =      4.95687  eV     1   --> A''            
     e(  5 -  5) =      8.00731  eV     1   --> A'             
     e(  6 -  6) =      9.32814  eV     1   --> A'             
     e(  7 -  7) =      9.44567  eV     1   --> A''            
     e(  8 -  8) =     10.67678  eV     1   --> A'             
     e(  9 -  9) =     13.60750  eV     1   --> A''            
     e( 10 - 10) =     14.55369  eV     1   --> A'             

 **************************************************************************

 **************************************************************************

                    xk=(  -0.20625,   0.00000,   0.20625  )

     Band symmetry, C_s (m)     point group:

     e(  1 -  1) =     -7.35759  eV     1   --> A'             
     e(  2 -  2) =      2.64200  eV     1   --> A'             
     e(  3 -  3) =      4.13601  eV     1   --> A'             
     e(  4 -  4) =      4.99414  eV     1   --> A''            
     e(  5 -  5) =      7.93044  eV     1   --> A'             
     e(  6 -  6) =      9.26505  eV     1   --> A'             
     e(  7 -  7) =      9.38156  eV     1   --> A''            
     e(  8 -  8) =     10.50650  eV     1   --> A'             
     e(  9 -  9) =     13.73039  eV     1   --> A''            
     e( 10 - 10) =     14.53843  eV     1   --> A'             

 **************************************************************************

 **************************************************************************

                    xk=(  -0.18750,   0.00000,   0.18750  )

     Band symmetry, C_s (m)     point group:

     e(  1 -  1) =     -7.40766  eV     1   --> A'             
     e(  2 -  2) =      2.90525  eV     1   --> A'             
     e(  3 -  3) =      4.29288  eV     1   --> A'             
     e(  4 -  4) =      5.02710  eV     1   --> A''            
     e(  5 -  5) =      7.84580  eV     1   --> A'             
     e(  6 -  6) =      9.21077  eV     1   --> A'             
     e(  7 -  7) =      9.32305  eV     1   --> A''            
     e(  8 -  8) =     10.31705  eV     1   --> A'             
     e(  9 -  9) =     13.86774  eV     1   --> A''            
     e( 10 - 10) =     14.53411  eV     1   --> A'             

 **************************************************************************

 **************************************************************************

                    xk=(  -0.16875,   0.00000,   0.16875  )

     Band symmetry, C_s (m)     point group:

     e(  1 -  1) =     -7.45325  eV     1   --> A'             
     e(  2 -  2) =      3.17231  eV     1   --> A'             
     e(  3 -  3) =      4.44196  eV     1   --> A'             
     e(  4 -  4) =      5.05595  eV     1   --> A''            
     e(  5 -  5) =      7.75147  eV     1   --> A'             
     e(  6 -  6) =      9.16523  eV     1   --> A'             
     e(  7 -  7) =      9.27013  eV     1   --> A''            
     e(  8 -  8) =     10.11739  eV     1   --> A'             
     e(  9 -  9) =     14.01867  eV     1   --> A''            
     e( 10 - 10) =     14.49557  eV     1   --> A'             

 **************************************************************************

 **************************************************************************

                    xk=(  -0.15000,   0.00000,   0.15000  )

     Band symmetry, C_s (m)     point group:

     e(  1 -  1) =     -7.49425  eV     1   --> A'             
     e(  2 -  2) =      3.44210  eV     1   --> A'             
     e(  3 -  3) =      4.58157  eV     1   --> A'             
     e(  4 -  4) =      5.08092  eV     1   --> A''            
     e(  5 -  5) =      7.64509  eV     1   --> A'             
     e(  6 -  6) =      9.12822  eV     1   --> A'             
     e(  7 -  7) =      9.22278  eV     1   --> A''            
     e(  8 -  8) =      9.91683  eV     1   --> A'             
     e(  9 -  9) =     14.18200  eV     1   --> A''            
     e( 10 - 10) =     14.38404  eV     1   --> A'             

 **************************************************************************

 **************************************************************************

                    xk=(  -0.13125,   0.00000,   0.13125  )

     Band symmetry, C_s (m)     point group:

     e(  1 -  1) =     -7.53060  eV     1   --> A'             
     e(  2 -  2) =      3.71316  eV     1   --> A'             
     e(  3 -  3) =      4.70995  eV     1   --> A'             
     e(  4 -  4) =      5.10222  eV     1   --> A''            
     e(  5 -  5) =      7.52417  eV     1   --> A'             
     e(  6 -  6) =      9.09934  eV     1   --> A'             
     e(  7 -  7) =      9.18100  eV     1   --> A''            
     e(  8 -  8) =      9.72438  eV     1   --> A'             
     e(  9 -  9) =     14.23076  eV     1   --> A'             
     e( 10 - 10) =     14.35618  eV     1   --> A''            

 **************************************************************************

 **************************************************************************

                    xk=(  -0.11250,   0.00000,   0.11250  )

     Band symmetry, C_s (m)     point group:

     e(  1 -  1) =     -7.56222  eV     1   --> A'             
     e(  2 -  2) =      3.98343  eV     1   --> A'             
     e(  3 -  3) =      4.82537  eV     1   --> A'             
     e(  4 -  4) =      5.12012  eV     1   --> A''            
     e(  5 -  5) =      7.38689  eV     1   --> A'             
     e(  6 -  6) =      9.07794  eV     1   --> A'             
     e(  7 -  7) =      9.14479  eV     1   --> A''            
     e(  8 -  8) =      9.54804  eV     1   --> A'             
     e(  9 -  9) =     14.07167  eV     1   --> A'             
     e( 10 - 10) =     14.53897  eV     1   --> A''            

 **************************************************************************

 **************************************************************************

                    xk=(  -0.09375,   0.00000,   0.09375  )

     Band symmetry, C_s (m)     point group:

     e(  1 -  1) =     -7.58906  eV     1   --> A'             
     e(  2 -  2) =      4.24988  eV     1   --> A'             
     e(  3 -  3) =      4.92620  eV     1   --> A'             
     e(  4 -  4) =      5.13482  eV     1   --> A''            
     e(  5 -  5) =      7.23312  eV     1   --> A'             
     e(  6 -  6) =      9.06310  eV     1   --> A'             
     e(  7 -  7) =      9.11414  eV     1   --> A''            
     e(  8 -  8) =      9.39420  eV     1   --> A'             
     e(  9 -  9) =     13.92283  eV     1   --> A'             
     e( 10 - 10) =     14.72711  eV     1   --> A''            

 **************************************************************************

 **************************************************************************

                    xk=(  -0.07500,   0.00000,   0.07500  )

     Band symmetry, C_s (m)     point group:

     e(  1 -  1) =     -7.61109  eV     1   --> A'             
     e(  2 -  2) =      4.50767  eV     1   --> A'             
     e(  3 -  3) =      5.01092  eV     1   --> A'             
     e(  4 -  4) =      5.14653  eV     1   --> A''            
     e(  5 -  5) =      7.06592  eV     1   --> A'             
     e(  6 -  6) =      9.05367  eV     1   --> A'             
     e(  7 -  7) =      9.08907  eV     1   --> A''            
     e(  8 -  8) =      9.26709  eV     1   --> A'             
     e(  9 -  9) =     13.79236  eV     1   --> A'             
     e( 10 - 10) =     14.91544  eV     1   --> A''            

 **************************************************************************

 **************************************************************************

                    xk=(  -0.05625,   0.00000,   0.05625  )

     Band symmetry, C_s (m)     point group:

     e(  1 -  1) =     -7.62825  eV     1   --> A'             
     e(  2 -  2) =      4.74860  eV     1   --> A'             
     e(  3 -  3) =      5.07824  eV     1   --> A'             
     e(  4 -  4) =      5.15545  eV     1   --> A''            
     e(  5 -  5) =      6.89332  eV     1   --> A'             
     e(  6 -  6) =      9.04832  eV     1   --> A'             
     e(  7 -  7) =      9.06956  eV     1   --> A''            
     e(  8 -  8) =      9.16868  eV     1   --> A'             
     e(  9 -  9) =     13.68560  eV     1   --> A'             
     e( 10 - 10) =     15.09549  eV     1   --> A''            

 **************************************************************************

 **************************************************************************

                    xk=(  -0.03750,   0.00000,   0.03750  )

     Band symmetry, C_s (m)     point group:

     e(  1 -  1) =     -7.64053  eV     1   --> A'             
     e(  2 -  2) =      4.95789  eV     1   --> A'             
     e(  3 -  3) =      5.12709  eV     1   --> A'             
     e(  4 -  4) =      5.16171  eV     1   --> A''            
     e(  5 -  5) =      6.73115  eV     1   --> A'             
     e(  6 -  6) =      9.04573  eV     1   --> A'             
     e(  7 -  7) =      9.05562  eV     1   --> A''            
     e(  8 -  8) =      9.09924  eV     1   --> A'             
     e(  9 -  9) =     13.60646  eV     1   --> A'             
     e( 10 - 10) =     15.25306  eV     1   --> A''            

 **************************************************************************

 **************************************************************************

                    xk=(  -0.01875,   0.00000,   0.01875  )

     Band symmetry, C_s (m)     point group:

     e(  1 -  1) =     -7.64791  eV     1   --> A'             
     e(  2 -  2) =      5.10935  eV     1   --> A'             
     e(  3 -  3) =      5.15672  eV     1   --> A'             
     e(  4 -  4) =      5.16542  eV     1   --> A''            
     e(  5 -  5) =      6.60711  eV     1   --> A'             
     e(  6 -  6) =      9.04471  eV     1   --> A'             
     e(  7 -  7) =      9.04726  eV     1   --> A''            
     e(  8 -  8) =      9.05808  eV     1   --> A'             
     e(  9 -  9) =     13.55781  eV     1   --> A'             
     e( 10 - 10) =     15.36598  eV     1   --> A''            

 **************************************************************************

 **************************************************************************

                    xk=(   0.00000,   0.00000,   0.00000  )

     point group T_d (-43m) 
     there are  5 classes
     the character table:

       E     8C3   3C2   6S4   6s_d 
A_1    1.00  1.00  1.00  1.00  1.00
A_2    1.00  1.00  1.00 -1.00 -1.00
E      2.00 -1.00  2.00  0.00  0.00
T_1    3.00  0.00 -1.00  1.00 -1.00
T_2    3.00  0.00 -1.00 -1.00  1.00

     the symmetry operations in each class and the name of the first element:

     E        1
                                                                 
     8C3      5    7    8    6   12    9   10   11
                                                                 
     3C2      2    3    4
                                                                 
     6S4     15   16   20   19   23   24
                                                                 
     6s_d    13   14   17   18   21   22
                                                                 

     Band symmetry, T_d (-43m)  point group:

     e(  1 -  1) =     -7.65037  eV     1   --> A_1  G_1  P_1  
     e(  2 -  4) =      5.16665  eV     3   --> T_2  G_15 P_4  
     e(  5 -  5) =      6.55880  eV     1   --> A_1  G_1  P_1  
     e(  6 -  8) =      9.04447  eV     3   --> T_2  G_15 P_4  
     e(  9 -  9) =     13.54139  eV     1   --> A_1  G_1  P_1  
     e( 10 - 10) =     15.40799  eV     1   -->   ?

 **************************************************************************

     BANDS        :      9.48s CPU      9.63s WALL


   This run was terminated on:  12:59:32  25May2024            

=------------------------------------------------------------------------------=
   JOB DONE.
=------------------------------------------------------------------------------=
