
     Program BANDS v.7.2 starts on 11Jun2024 at 11:49:51 

     This program is part of the open-source Quantum ESPRESSO suite
     for quantum simulation of materials; please cite
         "P. Giannozzi et al., J. Phys.:Condens. Matter 21 395502 (2009);
         "P. Giannozzi et al., J. Phys.:Condens. Matter 29 465901 (2017);
         "P. Giannozzi et al., J. Chem. Phys. 152 154105 (2020);
          URL http://www.quantum-espresso.org", 
     in publications or presentations arising from this work. More details at
     http://www.quantum-espresso.org/quote

     Serial version
     8320 MiB available memory on the printing compute node when the environment starts


     Reading xml data from directory:

     ./SCRATCH/gallium_arsenide.save/
     file Ga.pbe-dn-rrkjus_psl.0.2.UPF: wavefunction(s)  4S 3D renormalized

     IMPORTANT: XC functional enforced from input :
     Exchange-correlation= PBE
                           (   1   4   3   4   0   0   0)
     Any further DFT definition will be discarded
     Please, verify this is what you really want


     G-vector sticks info
     --------------------
     sticks:   dense  smooth     PW     G-vecs:    dense   smooth      PW
     Sum        2419     967    283                79231    19987    3143

     Using Slab Decomposition

     Reading collected, re-writing distributed wavefunctions
     high-symmetry point:  0.0000 0.0000 1.0000   x coordinate   0.0000
     high-symmetry point:  0.0000 0.0000 0.0000   x coordinate   1.0000
     high-symmetry point: -0.5000 0.5000 0.5000   x coordinate   1.8660
     high-symmetry point: -0.5000-0.0000 1.0000   x coordinate   2.5731
     high-symmetry point: -0.7500 0.0000 0.7500   x coordinate   2.9267
     high-symmetry point:  0.0000 0.0000 0.0000   x coordinate   3.9873

     Plottable bands (eV) written to file bands_gaas.dat.gnu
     Bands written to file bands_gaas.dat

 **************************************************************************

                    xk=(   0.00000,   0.00000,   1.00000  )

     point group D_2d (-42m)
     there are  5 classes
     the character table:

       E     2S4   C2    2C2'  2s_d 
A_1    1.00  1.00  1.00  1.00  1.00
A_2    1.00  1.00  1.00 -1.00 -1.00
B_1    1.00 -1.00  1.00  1.00 -1.00
B_2    1.00 -1.00  1.00 -1.00  1.00
E      2.00  0.00 -2.00  0.00  0.00

     the symmetry operations in each class and the name of the first element:

     E        1
                                                                 
     2S4      7    8
                                                                 
     C2       2
                                                                 
     2C2'     3    4
                                                                 
     2s_d     5    6
                                                                 

     Band symmetry, D_2d (-42m) point group:

     e(  1 -  1) =     -8.57980  eV     1   --> B_2  X_3  W_2  
     e(  2 -  3) =     -8.44370  eV     2   --> E    X_5  W_3  
     e(  4 -  4) =     -8.43817  eV     1   --> A_1  X_1  W_1  
     e(  5 -  5) =     -8.40509  eV     1   --> B_1  X_2  W_1' 
     e(  6 -  6) =     -3.87239  eV     1   --> B_2  X_3  W_2  
     e(  7 -  7) =     -0.38113  eV     1   --> A_1  X_1  W_1  
     e(  8 -  9) =      3.71054  eV     2   --> E    X_5  W_3  
     e( 10 - 10) =      7.77923  eV     1   --> B_2  X_3  W_2  
     e( 11 - 11) =      7.90344  eV     1   --> A_1  X_1  W_1  
     e( 12 - 13) =     16.07655  eV     2   --> E    X_5  W_3  

 **************************************************************************

 **************************************************************************

                    xk=(   0.00000,   0.00000,   0.97500  )

     point group C_2v (mm2) 
     there are  4 classes
     the character table:

       E     C2    s_v   s_v' 
A_1    1.00  1.00  1.00  1.00
A_2    1.00  1.00 -1.00 -1.00
B_1    1.00 -1.00  1.00 -1.00
B_2    1.00 -1.00 -1.00  1.00

     the symmetry operations in each class and the name of the first element:

     E        1
                                                                 
     C2       2
                                                                 
     s_v      3
                                                                 
     s_v'     4
                                                                 

     Band symmetry, C_2v (mm2)  point group:

     e(  1 -  1) =     -8.57968  eV     1   --> A_1  D_1  S_1  
     e(  2 -  3) =     -8.44376  eV     2   --> B_1  D_3  S_3  
     e(  2 -  3) =     -8.44376  eV     2   --> B_2  D_4  S_4  
     e(  4 -  4) =     -8.43813  eV     1   --> A_1  D_1  S_1  
     e(  5 -  5) =     -8.40511  eV     1   --> A_2  D_2  S_2  
     e(  6 -  6) =     -3.87942  eV     1   --> A_1  D_1  S_1  
     e(  7 -  7) =     -0.37127  eV     1   --> A_1  D_1  S_1  
     e(  8 -  9) =      3.71301  eV     2   --> B_1  D_3  S_3  
     e(  8 -  9) =      3.71301  eV     2   --> B_2  D_4  S_4  
     e( 10 - 10) =      7.77052  eV     1   --> A_1  D_1  S_1  
     e( 11 - 11) =      7.91840  eV     1   --> A_1  D_1  S_1  
     e( 12 - 13) =     16.05682  eV     2   --> B_1  D_3  S_3  
     e( 12 - 13) =     16.05682  eV     2   --> B_2  D_4  S_4  

 **************************************************************************

 **************************************************************************

                    xk=(   0.00000,   0.00000,   0.95000  )

     Band symmetry, C_2v (mm2)  point group:

     e(  1 -  1) =     -8.57933  eV     1   --> A_1  D_1  S_1  
     e(  2 -  3) =     -8.44396  eV     2   --> B_1  D_3  S_3  
     e(  2 -  3) =     -8.44396  eV     2   --> B_2  D_4  S_4  
     e(  4 -  4) =     -8.43802  eV     1   --> A_1  D_1  S_1  
     e(  5 -  5) =     -8.40517  eV     1   --> A_2  D_2  S_2  
     e(  6 -  6) =     -3.90026  eV     1   --> A_1  D_1  S_1  
     e(  7 -  7) =     -0.34195  eV     1   --> A_1  D_1  S_1  
     e(  8 -  9) =      3.72040  eV     2   --> B_1  D_3  S_3  
     e(  8 -  9) =      3.72040  eV     2   --> B_2  D_4  S_4  
     e( 10 - 10) =      7.75238  eV     1   --> A_1  D_1  S_1  
     e( 11 - 11) =      7.95526  eV     1   --> A_1  D_1  S_1  
     e( 12 - 13) =     15.99914  eV     2   --> B_1  D_3  S_3  
     e( 12 - 13) =     15.99914  eV     2   --> B_2  D_4  S_4  

 **************************************************************************

 **************************************************************************

                    xk=(   0.00000,   0.00000,   0.92500  )

     Band symmetry, C_2v (mm2)  point group:

     e(  1 -  1) =     -8.57875  eV     1   --> A_1  D_1  S_1  
     e(  2 -  3) =     -8.44430  eV     2   --> B_1  D_3  S_3  
     e(  2 -  3) =     -8.44430  eV     2   --> B_2  D_4  S_4  
     e(  4 -  4) =     -8.43783  eV     1   --> A_1  D_1  S_1  
     e(  5 -  5) =     -8.40526  eV     1   --> A_2  D_2  S_2  
     e(  6 -  6) =     -3.93416  eV     1   --> A_1  D_1  S_1  
     e(  7 -  7) =     -0.29391  eV     1   --> A_1  D_1  S_1  
     e(  8 -  9) =      3.73273  eV     2   --> B_1  D_3  S_3  
     e(  8 -  9) =      3.73273  eV     2   --> B_2  D_4  S_4  
     e( 10 - 10) =      7.73408  eV     1   --> A_1  D_1  S_1  
     e( 11 - 11) =      8.00466  eV     1   --> A_1  D_1  S_1  
     e( 12 - 13) =     15.90759  eV     2   --> B_1  D_3  S_3  
     e( 12 - 13) =     15.90759  eV     2   --> B_2  D_4  S_4  

 **************************************************************************

 **************************************************************************

                    xk=(   0.00000,   0.00000,   0.90000  )

     Band symmetry, C_2v (mm2)  point group:

     e(  1 -  1) =     -8.57794  eV     1   --> A_1  D_1  S_1  
     e(  2 -  3) =     -8.44476  eV     2   --> B_1  D_3  S_3  
     e(  2 -  3) =     -8.44476  eV     2   --> B_2  D_4  S_4  
     e(  4 -  4) =     -8.43757  eV     1   --> A_1  D_1  S_1  
     e(  5 -  5) =     -8.40539  eV     1   --> A_2  D_2  S_2  
     e(  6 -  6) =     -3.98000  eV     1   --> A_1  D_1  S_1  
     e(  7 -  7) =     -0.22830  eV     1   --> A_1  D_1  S_1  
     e(  8 -  9) =      3.74995  eV     2   --> B_1  D_3  S_3  
     e(  8 -  9) =      3.74995  eV     2   --> B_2  D_4  S_4  
     e( 10 - 10) =      7.71940  eV     1   --> A_1  D_1  S_1  
     e( 11 - 11) =      8.06273  eV     1   --> A_1  D_1  S_1  
     e( 12 - 13) =     15.78761  eV     2   --> B_1  D_3  S_3  
     e( 12 - 13) =     15.78761  eV     2   --> B_2  D_4  S_4  

 **************************************************************************

 **************************************************************************

                    xk=(   0.00000,   0.00000,   0.87500  )

     Band symmetry, C_2v (mm2)  point group:

     e(  1 -  1) =     -8.57690  eV     1   --> A_1  D_1  S_1  
     e(  2 -  3) =     -8.44536  eV     2   --> B_1  D_3  S_3  
     e(  2 -  3) =     -8.44536  eV     2   --> B_2  D_4  S_4  
     e(  4 -  4) =     -8.43725  eV     1   --> A_1  D_1  S_1  
     e(  5 -  5) =     -8.40556  eV     1   --> A_2  D_2  S_2  
     e(  6 -  6) =     -4.03638  eV     1   --> A_1  D_1  S_1  
     e(  7 -  7) =     -0.14651  eV     1   --> A_1  D_1  S_1  
     e(  8 -  9) =      3.77206  eV     2   --> B_1  D_3  S_3  
     e(  8 -  9) =      3.77206  eV     2   --> B_2  D_4  S_4  
     e( 10 - 10) =      7.70971  eV     1   --> A_1  D_1  S_1  
     e( 11 - 11) =      8.12792  eV     1   --> A_1  D_1  S_1  
     e( 12 - 13) =     15.64486  eV     2   --> B_1  D_3  S_3  
     e( 12 - 13) =     15.64486  eV     2   --> B_2  D_4  S_4  

 **************************************************************************

 **************************************************************************

                    xk=(   0.00000,   0.00000,   0.85000  )

     Band symmetry, C_2v (mm2)  point group:

     e(  1 -  1) =     -8.57565  eV     1   --> A_1  D_1  S_1  
     e(  2 -  3) =     -8.44608  eV     2   --> B_1  D_3  S_3  
     e(  2 -  3) =     -8.44608  eV     2   --> B_2  D_4  S_4  
     e(  4 -  4) =     -8.43686  eV     1   --> A_1  D_1  S_1  
     e(  5 -  5) =     -8.40576  eV     1   --> A_2  D_2  S_2  
     e(  6 -  6) =     -4.10179  eV     1   --> A_1  D_1  S_1  
     e(  7 -  7) =     -0.05008  eV     1   --> A_1  D_1  S_1  
     e(  8 -  9) =      3.79902  eV     2   --> B_1  D_3  S_3  
     e(  8 -  9) =      3.79902  eV     2   --> B_2  D_4  S_4  
     e( 10 - 10) =      7.70556  eV     1   --> A_1  D_1  S_1  
     e( 11 - 11) =      8.19942  eV     1   --> A_1  D_1  S_1  
     e( 12 - 13) =     15.48445  eV     2   --> B_1  D_3  S_3  
     e( 12 - 13) =     15.48445  eV     2   --> B_2  D_4  S_4  

 **************************************************************************

 **************************************************************************

                    xk=(   0.00000,   0.00000,   0.82500  )

     Band symmetry, C_2v (mm2)  point group:

     e(  1 -  1) =     -8.57417  eV     1   --> A_1  D_1  S_1  
     e(  2 -  3) =     -8.44692  eV     2   --> B_1  D_3  S_3  
     e(  2 -  3) =     -8.44692  eV     2   --> B_2  D_4  S_4  
     e(  4 -  4) =     -8.43640  eV     1   --> A_1  D_1  S_1  
     e(  5 -  5) =     -8.40600  eV     1   --> A_2  D_2  S_2  
     e(  6 -  6) =     -4.17472  eV     1   --> A_1  D_1  S_1  
     e(  7 -  7) =      0.05945  eV     1   --> A_1  D_1  S_1  
     e(  8 -  9) =      3.83080  eV     2   --> B_1  D_3  S_3  
     e(  8 -  9) =      3.83080  eV     2   --> B_2  D_4  S_4  
     e( 10 - 10) =      7.70719  eV     1   --> A_1  D_1  S_1  
     e( 11 - 11) =      8.27669  eV     1   --> A_1  D_1  S_1  
     e( 12 - 13) =     15.31064  eV     2   --> B_1  D_3  S_3  
     e( 12 - 13) =     15.31064  eV     2   --> B_2  D_4  S_4  

 **************************************************************************

 **************************************************************************

                    xk=(   0.00000,   0.00000,   0.80000  )

     Band symmetry, C_2v (mm2)  point group:

     e(  1 -  1) =     -8.57248  eV     1   --> A_1  D_1  S_1  
     e(  2 -  3) =     -8.44787  eV     2   --> B_1  D_3  S_3  
     e(  2 -  3) =     -8.44787  eV     2   --> B_2  D_4  S_4  
     e(  4 -  4) =     -8.43589  eV     1   --> A_1  D_1  S_1  
     e(  5 -  5) =     -8.40626  eV     1   --> A_2  D_2  S_2  
     e(  6 -  6) =     -4.25370  eV     1   --> A_1  D_1  S_1  
     e(  7 -  7) =      0.18059  eV     1   --> A_1  D_1  S_1  
     e(  8 -  9) =      3.86734  eV     2   --> B_1  D_3  S_3  
     e(  8 -  9) =      3.86734  eV     2   --> B_2  D_4  S_4  
     e( 10 - 10) =      7.71469  eV     1   --> A_1  D_1  S_1  
     e( 11 - 11) =      8.35924  eV     1   --> A_1  D_1  S_1  
     e( 12 - 13) =     15.12683  eV     2   --> B_1  D_3  S_3  
     e( 12 - 13) =     15.12683  eV     2   --> B_2  D_4  S_4  

 **************************************************************************

 **************************************************************************

                    xk=(   0.00000,   0.00000,   0.77500  )

     Band symmetry, C_2v (mm2)  point group:

     e(  1 -  1) =     -8.57057  eV     1   --> A_1  D_1  S_1  
     e(  2 -  3) =     -8.44893  eV     2   --> B_1  D_3  S_3  
     e(  2 -  3) =     -8.44893  eV     2   --> B_2  D_4  S_4  
     e(  4 -  4) =     -8.43531  eV     1   --> A_1  D_1  S_1  
     e(  5 -  5) =     -8.40656  eV     1   --> A_2  D_2  S_2  
     e(  6 -  6) =     -4.33738  eV     1   --> A_1  D_1  S_1  
     e(  7 -  7) =      0.31199  eV     1   --> A_1  D_1  S_1  
     e(  8 -  9) =      3.90861  eV     2   --> B_1  D_3  S_3  
     e(  8 -  9) =      3.90861  eV     2   --> B_2  D_4  S_4  
     e( 10 - 10) =      7.72809  eV     1   --> A_1  D_1  S_1  
     e( 11 - 11) =      8.44654  eV     1   --> A_1  D_1  S_1  
     e( 12 - 13) =     14.93564  eV     2   --> B_1  D_3  S_3  
     e( 12 - 13) =     14.93564  eV     2   --> B_2  D_4  S_4  

 **************************************************************************

 **************************************************************************

                    xk=(   0.00000,   0.00000,   0.75000  )

     Band symmetry, C_2v (mm2)  point group:

     e(  1 -  1) =     -8.56847  eV     1   --> A_1  D_1  S_1  
     e(  2 -  3) =     -8.45008  eV     2   --> B_1  D_3  S_3  
     e(  2 -  3) =     -8.45008  eV     2   --> B_2  D_4  S_4  
     e(  4 -  4) =     -8.43469  eV     1   --> A_1  D_1  S_1  
     e(  5 -  5) =     -8.40689  eV     1   --> A_2  D_2  S_2  
     e(  6 -  6) =     -4.42456  eV     1   --> A_1  D_1  S_1  
     e(  7 -  7) =      0.45241  eV     1   --> A_1  D_1  S_1  
     e(  8 -  9) =      3.95453  eV     2   --> B_1  D_3  S_3  
     e(  8 -  9) =      3.95453  eV     2   --> B_2  D_4  S_4  
     e( 10 - 10) =      7.74736  eV     1   --> A_1  D_1  S_1  
     e( 11 - 11) =      8.53796  eV     1   --> A_1  D_1  S_1  
     e( 12 - 13) =     14.73909  eV     2   --> B_1  D_3  S_3  
     e( 12 - 13) =     14.73909  eV     2   --> B_2  D_4  S_4  

 **************************************************************************

 **************************************************************************

                    xk=(   0.00000,   0.00000,   0.72500  )

     Band symmetry, C_2v (mm2)  point group:

     e(  1 -  1) =     -8.56617  eV     1   --> A_1  D_1  S_1  
     e(  2 -  3) =     -8.45132  eV     2   --> B_1  D_3  S_3  
     e(  2 -  3) =     -8.45132  eV     2   --> B_2  D_4  S_4  
     e(  4 -  4) =     -8.43401  eV     1   --> A_1  D_1  S_1  
     e(  5 -  5) =     -8.40724  eV     1   --> A_2  D_2  S_2  
     e(  6 -  6) =     -4.51418  eV     1   --> A_1  D_1  S_1  
     e(  7 -  7) =      0.60077  eV     1   --> A_1  D_1  S_1  
     e(  8 -  9) =      4.00504  eV     2   --> B_1  D_3  S_3  
     e(  8 -  9) =      4.00504  eV     2   --> B_2  D_4  S_4  
     e( 10 - 10) =      7.77246  eV     1   --> A_1  D_1  S_1  
     e( 11 - 11) =      8.63277  eV     1   --> A_1  D_1  S_1  
     e( 12 - 13) =     14.53873  eV     2   --> B_1  D_3  S_3  
     e( 12 - 13) =     14.53873  eV     2   --> B_2  D_4  S_4  

 **************************************************************************

 **************************************************************************

                    xk=(   0.00000,   0.00000,   0.70000  )

     Band symmetry, C_2v (mm2)  point group:

     e(  1 -  1) =     -8.56369  eV     1   --> A_1  D_1  S_1  
     e(  2 -  3) =     -8.45266  eV     2   --> B_1  D_3  S_3  
     e(  2 -  3) =     -8.45266  eV     2   --> B_2  D_4  S_4  
     e(  4 -  4) =     -8.43330  eV     1   --> A_1  D_1  S_1  
     e(  5 -  5) =     -8.40762  eV     1   --> A_2  D_2  S_2  
     e(  6 -  6) =     -4.60531  eV     1   --> A_1  D_1  S_1  
     e(  7 -  7) =      0.75611  eV     1   --> A_1  D_1  S_1  
     e(  8 -  9) =      4.06005  eV     2   --> B_1  D_3  S_3  
     e(  8 -  9) =      4.06005  eV     2   --> B_2  D_4  S_4  
     e( 10 - 10) =      7.80330  eV     1   --> A_1  D_1  S_1  
     e( 11 - 11) =      8.73004  eV     1   --> A_1  D_1  S_1  
     e( 12 - 13) =     14.33573  eV     2   --> B_1  D_3  S_3  
     e( 12 - 13) =     14.33573  eV     2   --> B_2  D_4  S_4  

 **************************************************************************

 **************************************************************************

                    xk=(   0.00000,   0.00000,   0.67500  )

     Band symmetry, C_2v (mm2)  point group:

     e(  1 -  1) =     -8.56103  eV     1   --> A_1  D_1  S_1  
     e(  2 -  3) =     -8.45406  eV     2   --> B_1  D_3  S_3  
     e(  2 -  3) =     -8.45406  eV     2   --> B_2  D_4  S_4  
     e(  4 -  4) =     -8.43255  eV     1   --> A_1  D_1  S_1  
     e(  5 -  5) =     -8.40802  eV     1   --> A_2  D_2  S_2  
     e(  6 -  6) =     -4.69716  eV     1   --> A_1  D_1  S_1  
     e(  7 -  7) =      0.91762  eV     1   --> A_1  D_1  S_1  
     e(  8 -  9) =      4.11948  eV     2   --> B_1  D_3  S_3  
     e(  8 -  9) =      4.11948  eV     2   --> B_2  D_4  S_4  
     e( 10 - 10) =      7.83980  eV     1   --> A_1  D_1  S_1  
     e( 11 - 11) =      8.82862  eV     1   --> A_1  D_1  S_1  
     e( 12 - 13) =     14.13103  eV     2   --> B_1  D_3  S_3  
     e( 12 - 13) =     14.13103  eV     2   --> B_2  D_4  S_4  

 **************************************************************************

 **************************************************************************

                    xk=(   0.00000,   0.00000,   0.65000  )

     Band symmetry, C_2v (mm2)  point group:

     e(  1 -  1) =     -8.55820  eV     1   --> A_1  D_1  S_1  
     e(  2 -  3) =     -8.45554  eV     2   --> B_1  D_3  S_3  
     e(  2 -  3) =     -8.45554  eV     2   --> B_2  D_4  S_4  
     e(  4 -  4) =     -8.43177  eV     1   --> A_1  D_1  S_1  
     e(  5 -  5) =     -8.40844  eV     1   --> A_2  D_2  S_2  
     e(  6 -  6) =     -4.78904  eV     1   --> A_1  D_1  S_1  
     e(  7 -  7) =      1.08458  eV     1   --> A_1  D_1  S_1  
     e(  8 -  9) =      4.18323  eV     2   --> B_1  D_3  S_3  
     e(  8 -  9) =      4.18323  eV     2   --> B_2  D_4  S_4  
     e( 10 - 10) =      7.88182  eV     1   --> A_1  D_1  S_1  
     e( 11 - 11) =      8.92709  eV     1   --> A_1  D_1  S_1  
     e( 12 - 13) =     13.92537  eV     2   --> B_1  D_3  S_3  
     e( 12 - 13) =     13.92537  eV     2   --> B_2  D_4  S_4  

 **************************************************************************

 **************************************************************************

                    xk=(   0.00000,   0.00000,   0.62500  )

     Band symmetry, C_2v (mm2)  point group:

     e(  1 -  1) =     -8.55521  eV     1   --> A_1  D_1  S_1  
     e(  2 -  3) =     -8.45706  eV     2   --> B_1  D_3  S_3  
     e(  2 -  3) =     -8.45706  eV     2   --> B_2  D_4  S_4  
     e(  4 -  4) =     -8.43096  eV     1   --> A_1  D_1  S_1  
     e(  5 -  5) =     -8.40887  eV     1   --> A_2  D_2  S_2  
     e(  6 -  6) =     -4.88035  eV     1   --> A_1  D_1  S_1  
     e(  7 -  7) =      1.25640  eV     1   --> A_1  D_1  S_1  
     e(  8 -  9) =      4.25117  eV     2   --> B_1  D_3  S_3  
     e(  8 -  9) =      4.25117  eV     2   --> B_2  D_4  S_4  
     e( 10 - 10) =      7.92924  eV     1   --> A_1  D_1  S_1  
     e( 11 - 11) =      9.02369  eV     1   --> A_1  D_1  S_1  
     e( 12 - 13) =     13.71932  eV     2   --> B_1  D_3  S_3  
     e( 12 - 13) =     13.71932  eV     2   --> B_2  D_4  S_4  

 **************************************************************************

 **************************************************************************

                    xk=(   0.00000,   0.00000,   0.60000  )

     Band symmetry, C_2v (mm2)  point group:

     e(  1 -  1) =     -8.55209  eV     1   --> A_1  D_1  S_1  
     e(  2 -  3) =     -8.45863  eV     2   --> B_1  D_3  S_3  
     e(  2 -  3) =     -8.45863  eV     2   --> B_2  D_4  S_4  
     e(  4 -  4) =     -8.43013  eV     1   --> A_1  D_1  S_1  
     e(  5 -  5) =     -8.40932  eV     1   --> A_2  D_2  S_2  
     e(  6 -  6) =     -4.97059  eV     1   --> A_1  D_1  S_1  
     e(  7 -  7) =      1.43254  eV     1   --> A_1  D_1  S_1  
     e(  8 -  9) =      4.32319  eV     2   --> B_1  D_3  S_3  
     e(  8 -  9) =      4.32319  eV     2   --> B_2  D_4  S_4  
     e( 10 - 10) =      7.98186  eV     1   --> A_1  D_1  S_1  
     e( 11 - 11) =      9.11626  eV     1   --> A_1  D_1  S_1  
     e( 12 - 13) =     13.51339  eV     2   --> B_1  D_3  S_3  
     e( 12 - 13) =     13.51339  eV     2   --> B_2  D_4  S_4  

 **************************************************************************

 **************************************************************************

                    xk=(   0.00000,   0.00000,   0.57500  )

     Band symmetry, C_2v (mm2)  point group:

     e(  1 -  1) =     -8.54883  eV     1   --> A_1  D_1  S_1  
     e(  2 -  3) =     -8.46024  eV     2   --> B_1  D_3  S_3  
     e(  2 -  3) =     -8.46024  eV     2   --> B_2  D_4  S_4  
     e(  4 -  4) =     -8.42929  eV     1   --> A_1  D_1  S_1  
     e(  5 -  5) =     -8.40979  eV     1   --> A_2  D_2  S_2  
     e(  6 -  6) =     -5.05932  eV     1   --> A_1  D_1  S_1  
     e(  7 -  7) =      1.61256  eV     1   --> A_1  D_1  S_1  
     e(  8 -  9) =      4.39913  eV     2   --> B_1  D_3  S_3  
     e(  8 -  9) =      4.39913  eV     2   --> B_2  D_4  S_4  
     e( 10 - 10) =      8.03948  eV     1   --> A_1  D_1  S_1  
     e( 11 - 11) =      9.20219  eV     1   --> A_1  D_1  S_1  
     e( 12 - 13) =     13.30799  eV     2   --> B_1  D_3  S_3  
     e( 12 - 13) =     13.30799  eV     2   --> B_2  D_4  S_4  

 **************************************************************************

 **************************************************************************

                    xk=(   0.00000,   0.00000,   0.55000  )

     Band symmetry, C_2v (mm2)  point group:

     e(  1 -  1) =     -8.54545  eV     1   --> A_1  D_1  S_1  
     e(  2 -  3) =     -8.46188  eV     2   --> B_1  D_3  S_3  
     e(  2 -  3) =     -8.46188  eV     2   --> B_2  D_4  S_4  
     e(  4 -  4) =     -8.42845  eV     1   --> A_1  D_1  S_1  
     e(  5 -  5) =     -8.41026  eV     1   --> A_2  D_2  S_2  
     e(  6 -  6) =     -5.14616  eV     1   --> A_1  D_1  S_1  
     e(  7 -  7) =      1.79606  eV     1   --> A_1  D_1  S_1  
     e(  8 -  9) =      4.47884  eV     2   --> B_1  D_3  S_3  
     e(  8 -  9) =      4.47884  eV     2   --> B_2  D_4  S_4  
     e( 10 - 10) =      8.10183  eV     1   --> A_1  D_1  S_1  
     e( 11 - 11) =      9.27846  eV     1   --> A_1  D_1  S_1  
     e( 12 - 13) =     13.10349  eV     2   --> B_1  D_3  S_3  
     e( 12 - 13) =     13.10349  eV     2   --> B_2  D_4  S_4  

 **************************************************************************

 **************************************************************************

                    xk=(   0.00000,   0.00000,   0.52500  )

     Band symmetry, C_2v (mm2)  point group:

     e(  1 -  1) =     -8.54198  eV     1   --> A_1  D_1  S_1  
     e(  2 -  3) =     -8.46353  eV     2   --> B_1  D_3  S_3  
     e(  2 -  3) =     -8.46353  eV     2   --> B_2  D_4  S_4  
     e(  4 -  4) =     -8.42760  eV     1   --> A_1  D_1  S_1  
     e(  5 -  5) =     -8.41074  eV     1   --> A_2  D_2  S_2  
     e(  6 -  6) =     -5.23077  eV     1   --> A_1  D_1  S_1  
     e(  7 -  7) =      1.98271  eV     1   --> A_1  D_1  S_1  
     e(  8 -  9) =      4.56212  eV     2   --> B_1  D_3  S_3  
     e(  8 -  9) =      4.56212  eV     2   --> B_2  D_4  S_4  
     e( 10 - 10) =      8.16855  eV     1   --> A_1  D_1  S_1  
     e( 11 - 11) =      9.34165  eV     1   --> A_1  D_1  S_1  
     e( 12 - 13) =     12.90025  eV     2   --> B_1  D_3  S_3  
     e( 12 - 13) =     12.90025  eV     2   --> B_2  D_4  S_4  

 **************************************************************************

 **************************************************************************

                    xk=(   0.00000,   0.00000,   0.50000  )

     Band symmetry, C_2v (mm2)  point group:

     e(  1 -  1) =     -8.53842  eV     1   --> A_1  D_1  S_1  
     e(  2 -  3) =     -8.46519  eV     2   --> B_1  D_3  S_3  
     e(  2 -  3) =     -8.46519  eV     2   --> B_2  D_4  S_4  
     e(  4 -  4) =     -8.42675  eV     1   --> A_1  D_1  S_1  
     e(  5 -  5) =     -8.41122  eV     1   --> A_2  D_2  S_2  
     e(  6 -  6) =     -5.31288  eV     1   --> A_1  D_1  S_1  
     e(  7 -  7) =      2.17224  eV     1   --> A_1  D_1  S_1  
     e(  8 -  9) =      4.64877  eV     2   --> B_1  D_3  S_3  
     e(  8 -  9) =      4.64877  eV     2   --> B_2  D_4  S_4  
     e( 10 - 10) =      8.23918  eV     1   --> A_1  D_1  S_1  
     e( 11 - 11) =      9.38822  eV     1   --> A_1  D_1  S_1  
     e( 12 - 13) =     12.69860  eV     2   --> B_1  D_3  S_3  
     e( 12 - 13) =     12.69860  eV     2   --> B_2  D_4  S_4  

 **************************************************************************

 **************************************************************************

                    xk=(   0.00000,   0.00000,   0.47500  )

     Band symmetry, C_2v (mm2)  point group:

     e(  1 -  1) =     -8.53480  eV     1   --> A_1  D_1  S_1  
     e(  2 -  3) =     -8.46684  eV     2   --> B_1  D_3  S_3  
     e(  2 -  3) =     -8.46684  eV     2   --> B_2  D_4  S_4  
     e(  4 -  4) =     -8.42592  eV     1   --> A_1  D_1  S_1  
     e(  5 -  5) =     -8.41170  eV     1   --> A_2  D_2  S_2  
     e(  6 -  6) =     -5.39221  eV     1   --> A_1  D_1  S_1  
     e(  7 -  7) =      2.36439  eV     1   --> A_1  D_1  S_1  
     e(  8 -  9) =      4.73854  eV     2   --> B_1  D_3  S_3  
     e(  8 -  9) =      4.73854  eV     2   --> B_2  D_4  S_4  
     e( 10 - 10) =      8.31305  eV     1   --> A_1  D_1  S_1  
     e( 11 - 11) =      9.41489  eV     1   --> A_1  D_1  S_1  
     e( 12 - 13) =     12.49889  eV     2   --> B_1  D_3  S_3  
     e( 12 - 13) =     12.49889  eV     2   --> B_2  D_4  S_4  

 **************************************************************************

 **************************************************************************

                    xk=(   0.00000,   0.00000,   0.45000  )

     Band symmetry, C_2v (mm2)  point group:

     e(  1 -  1) =     -8.53113  eV     1   --> A_1  D_1  S_1  
     e(  2 -  3) =     -8.46846  eV     2   --> B_1  D_3  S_3  
     e(  2 -  3) =     -8.46846  eV     2   --> B_2  D_4  S_4  
     e(  4 -  4) =     -8.42510  eV     1   --> A_1  D_1  S_1  
     e(  5 -  5) =     -8.41217  eV     1   --> A_2  D_2  S_2  
     e(  6 -  6) =     -5.46856  eV     1   --> A_1  D_1  S_1  
     e(  7 -  7) =      2.55895  eV     1   --> A_1  D_1  S_1  
     e(  8 -  9) =      4.83117  eV     2   --> B_1  D_3  S_3  
     e(  8 -  9) =      4.83117  eV     2   --> B_2  D_4  S_4  
     e( 10 - 10) =      8.38917  eV     1   --> A_1  D_1  S_1  
     e( 11 - 11) =      9.41923  eV     1   --> A_1  D_1  S_1  
     e( 12 - 13) =     12.30148  eV     2   --> B_1  D_3  S_3  
     e( 12 - 13) =     12.30148  eV     2   --> B_2  D_4  S_4  

 **************************************************************************

 **************************************************************************

                    xk=(   0.00000,   0.00000,   0.42500  )

     Band symmetry, C_2v (mm2)  point group:

     e(  1 -  1) =     -8.52744  eV     1   --> A_1  D_1  S_1  
     e(  2 -  3) =     -8.47007  eV     2   --> B_1  D_3  S_3  
     e(  2 -  3) =     -8.47007  eV     2   --> B_2  D_4  S_4  
     e(  4 -  4) =     -8.42431  eV     1   --> A_1  D_1  S_1  
     e(  5 -  5) =     -8.41264  eV     1   --> A_2  D_2  S_2  
     e(  6 -  6) =     -5.54173  eV     1   --> A_1  D_1  S_1  
     e(  7 -  7) =      2.75574  eV     1   --> A_1  D_1  S_1  
     e(  8 -  9) =      4.92634  eV     2   --> B_1  D_3  S_3  
     e(  8 -  9) =      4.92634  eV     2   --> B_2  D_4  S_4  
     e( 10 - 10) =      8.46594  eV     1   --> A_1  D_1  S_1  
     e( 11 - 11) =      9.40044  eV     1   --> A_1  D_1  S_1  
     e( 12 - 13) =     12.10674  eV     2   --> B_1  D_3  S_3  
     e( 12 - 13) =     12.10674  eV     2   --> B_2  D_4  S_4  

 **************************************************************************

 **************************************************************************

                    xk=(   0.00000,   0.00000,   0.40000  )

     Band symmetry, C_2v (mm2)  point group:

     e(  1 -  1) =     -8.52374  eV     1   --> A_1  D_1  S_1  
     e(  2 -  3) =     -8.47165  eV     2   --> B_1  D_3  S_3  
     e(  2 -  3) =     -8.47165  eV     2   --> B_2  D_4  S_4  
     e(  4 -  4) =     -8.42354  eV     1   --> A_1  D_1  S_1  
     e(  5 -  5) =     -8.41311  eV     1   --> A_2  D_2  S_2  
     e(  6 -  6) =     -5.61153  eV     1   --> A_1  D_1  S_1  
     e(  7 -  7) =      2.95461  eV     1   --> A_1  D_1  S_1  
     e(  8 -  9) =      5.02370  eV     2   --> B_1  D_3  S_3  
     e(  8 -  9) =      5.02370  eV     2   --> B_2  D_4  S_4  
     e( 10 - 10) =      8.54051  eV     1   --> A_1  D_1  S_1  
     e( 11 - 11) =      9.36032  eV     1   --> A_1  D_1  S_1  
     e( 12 - 13) =     11.91511  eV     2   --> B_1  D_3  S_3  
     e( 12 - 13) =     11.91511  eV     2   --> B_2  D_4  S_4  

 **************************************************************************

 **************************************************************************

                    xk=(   0.00000,   0.00000,   0.37500  )

     Band symmetry, C_2v (mm2)  point group:

     e(  1 -  1) =     -8.52007  eV     1   --> A_1  D_1  S_1  
     e(  2 -  3) =     -8.47318  eV     2   --> B_1  D_3  S_3  
     e(  2 -  3) =     -8.47318  eV     2   --> B_2  D_4  S_4  
     e(  4 -  4) =     -8.42280  eV     1   --> A_1  D_1  S_1  
     e(  5 -  5) =     -8.41356  eV     1   --> A_2  D_2  S_2  
     e(  6 -  6) =     -5.67781  eV     1   --> A_1  D_1  S_1  
     e(  7 -  7) =      3.15540  eV     1   --> A_1  D_1  S_1  
     e(  8 -  9) =      5.12283  eV     2   --> B_1  D_3  S_3  
     e(  8 -  9) =      5.12283  eV     2   --> B_2  D_4  S_4  
     e( 10 - 10) =      8.60735  eV     1   --> A_1  D_1  S_1  
     e( 11 - 11) =      9.30480  eV     1   --> A_1  D_1  S_1  
     e( 12 - 13) =     11.72704  eV     2   --> B_1  D_3  S_3  
     e( 12 - 13) =     11.72704  eV     2   --> B_2  D_4  S_4  

 **************************************************************************

 **************************************************************************

                    xk=(   0.00000,   0.00000,   0.35000  )

     Band symmetry, C_2v (mm2)  point group:

     e(  1 -  1) =     -8.51644  eV     1   --> A_1  D_1  S_1  
     e(  2 -  3) =     -8.47465  eV     2   --> B_1  D_3  S_3  
     e(  2 -  3) =     -8.47465  eV     2   --> B_2  D_4  S_4  
     e(  4 -  4) =     -8.42210  eV     1   --> A_1  D_1  S_1  
     e(  5 -  5) =     -8.41399  eV     1   --> A_2  D_2  S_2  
     e(  6 -  6) =     -5.74043  eV     1   --> A_1  D_1  S_1  
     e(  7 -  7) =      3.35802  eV     1   --> A_1  D_1  S_1  
     e(  8 -  9) =      5.22326  eV     2   --> B_1  D_3  S_3  
     e(  8 -  9) =      5.22326  eV     2   --> B_2  D_4  S_4  
     e( 10 - 10) =      8.65516  eV     1   --> A_1  D_1  S_1  
     e( 11 - 11) =      9.24671  eV     1   --> A_1  D_1  S_1  
     e( 12 - 13) =     11.54309  eV     2   --> B_1  D_3  S_3  
     e( 12 - 13) =     11.54309  eV     2   --> B_2  D_4  S_4  

 **************************************************************************

 **************************************************************************

                    xk=(   0.00000,   0.00000,   0.32500  )

     Band symmetry, C_2v (mm2)  point group:

     e(  1 -  1) =     -8.51289  eV     1   --> A_1  D_1  S_1  
     e(  2 -  3) =     -8.47607  eV     2   --> B_1  D_3  S_3  
     e(  2 -  3) =     -8.47607  eV     2   --> B_2  D_4  S_4  
     e(  4 -  4) =     -8.42145  eV     1   --> A_1  D_1  S_1  
     e(  5 -  5) =     -8.41442  eV     1   --> A_2  D_2  S_2  
     e(  6 -  6) =     -5.79926  eV     1   --> A_1  D_1  S_1  
     e(  7 -  7) =      3.56233  eV     1   --> A_1  D_1  S_1  
     e(  8 -  9) =      5.32442  eV     2   --> B_1  D_3  S_3  
     e(  8 -  9) =      5.32442  eV     2   --> B_2  D_4  S_4  
     e( 10 - 10) =      8.66359  eV     1   --> A_1  D_1  S_1  
     e( 11 - 11) =      9.20865  eV     1   --> A_1  D_1  S_1  
     e( 12 - 13) =     11.36386  eV     2   --> B_1  D_3  S_3  
     e( 12 - 13) =     11.36386  eV     2   --> B_2  D_4  S_4  

 **************************************************************************

 **************************************************************************

                    xk=(   0.00000,   0.00000,   0.30000  )

     Band symmetry, C_2v (mm2)  point group:

     e(  1 -  1) =     -8.50943  eV     1   --> A_1  D_1  S_1  
     e(  2 -  3) =     -8.47742  eV     2   --> B_1  D_3  S_3  
     e(  2 -  3) =     -8.47742  eV     2   --> B_2  D_4  S_4  
     e(  4 -  4) =     -8.42083  eV     1   --> A_1  D_1  S_1  
     e(  5 -  5) =     -8.41482  eV     1   --> A_2  D_2  S_2  
     e(  6 -  6) =     -5.85418  eV     1   --> A_1  D_1  S_1  
     e(  7 -  7) =      3.76827  eV     1   --> A_1  D_1  S_1  
     e(  8 -  9) =      5.42567  eV     2   --> B_1  D_3  S_3  
     e(  8 -  9) =      5.42567  eV     2   --> B_2  D_4  S_4  
     e( 10 - 10) =      8.61291  eV     1   --> A_1  D_1  S_1  
     e( 11 - 11) =      9.21283  eV     1   --> A_1  D_1  S_1  
     e( 12 - 13) =     11.19004  eV     2   --> B_1  D_3  S_3  
     e( 12 - 13) =     11.19004  eV     2   --> B_2  D_4  S_4  

 **************************************************************************

 **************************************************************************

                    xk=(   0.00000,   0.00000,   0.27500  )

     Band symmetry, C_2v (mm2)  point group:

     e(  1 -  1) =     -8.50610  eV     1   --> A_1  D_1  S_1  
     e(  2 -  3) =     -8.47868  eV     2   --> B_1  D_3  S_3  
     e(  2 -  3) =     -8.47868  eV     2   --> B_2  D_4  S_4  
     e(  4 -  4) =     -8.42027  eV     1   --> A_1  D_1  S_1  
     e(  5 -  5) =     -8.41519  eV     1   --> A_2  D_2  S_2  
     e(  6 -  6) =     -5.90510  eV     1   --> A_1  D_1  S_1  
     e(  7 -  7) =      3.97572  eV     1   --> A_1  D_1  S_1  
     e(  8 -  9) =      5.52627  eV     2   --> B_1  D_3  S_3  
     e(  8 -  9) =      5.52627  eV     2   --> B_2  D_4  S_4  
     e( 10 - 10) =      8.50635  eV     1   --> A_1  D_1  S_1  
     e( 11 - 11) =      9.25835  eV     1   --> A_1  D_1  S_1  
     e( 12 - 13) =     11.02246  eV     2   --> B_1  D_3  S_3  
     e( 12 - 13) =     11.02246  eV     2   --> B_2  D_4  S_4  

 **************************************************************************

 **************************************************************************

                    xk=(   0.00000,   0.00000,   0.25000  )

     Band symmetry, C_2v (mm2)  point group:

     e(  1 -  1) =     -8.50293  eV     1   --> A_1  D_1  S_1  
     e(  2 -  3) =     -8.47986  eV     2   --> B_1  D_3  S_3  
     e(  2 -  3) =     -8.47986  eV     2   --> B_2  D_4  S_4  
     e(  4 -  4) =     -8.41975  eV     1   --> A_1  D_1  S_1  
     e(  5 -  5) =     -8.41555  eV     1   --> A_2  D_2  S_2  
     e(  6 -  6) =     -5.95190  eV     1   --> A_1  D_1  S_1  
     e(  7 -  7) =      4.18460  eV     1   --> A_1  D_1  S_1  
     e(  8 -  9) =      5.62532  eV     2   --> B_1  D_3  S_3  
     e(  8 -  9) =      5.62532  eV     2   --> B_2  D_4  S_4  
     e( 10 - 10) =      8.36209  eV     1   --> A_1  D_1  S_1  
     e( 11 - 11) =      9.32893  eV     1   --> A_1  D_1  S_1  
     e( 12 - 13) =     10.86203  eV     2   --> B_1  D_3  S_3  
     e( 12 - 13) =     10.86203  eV     2   --> B_2  D_4  S_4  

 **************************************************************************

 **************************************************************************

                    xk=(   0.00000,   0.00000,   0.22500  )

     Band symmetry, C_2v (mm2)  point group:

     e(  1 -  1) =     -8.49995  eV     1   --> A_1  D_1  S_1  
     e(  2 -  3) =     -8.48095  eV     2   --> B_1  D_3  S_3  
     e(  2 -  3) =     -8.48095  eV     2   --> B_2  D_4  S_4  
     e(  4 -  4) =     -8.41928  eV     1   --> A_1  D_1  S_1  
     e(  5 -  5) =     -8.41587  eV     1   --> A_2  D_2  S_2  
     e(  6 -  6) =     -5.99451  eV     1   --> A_1  D_1  S_1  
     e(  7 -  7) =      4.39482  eV     1   --> A_1  D_1  S_1  
     e(  8 -  9) =      5.72181  eV     2   --> B_1  D_3  S_3  
     e(  8 -  9) =      5.72181  eV     2   --> B_2  D_4  S_4  
     e( 10 - 10) =      8.19445  eV     1   --> A_1  D_1  S_1  
     e( 11 - 11) =      9.41163  eV     1   --> A_1  D_1  S_1  
     e( 12 - 13) =     10.70983  eV     2   --> B_1  D_3  S_3  
     e( 12 - 13) =     10.70983  eV     2   --> B_2  D_4  S_4  

 **************************************************************************

 **************************************************************************

                    xk=(   0.00000,   0.00000,   0.20000  )

     Band symmetry, C_2v (mm2)  point group:

     e(  1 -  1) =     -8.49718  eV     1   --> A_1  D_1  S_1  
     e(  2 -  3) =     -8.48194  eV     2   --> B_1  D_3  S_3  
     e(  2 -  3) =     -8.48194  eV     2   --> B_2  D_4  S_4  
     e(  4 -  4) =     -8.41885  eV     1   --> A_1  D_1  S_1  
     e(  5 -  5) =     -8.41617  eV     1   --> A_2  D_2  S_2  
     e(  6 -  6) =     -6.03285  eV     1   --> A_1  D_1  S_1  
     e(  7 -  7) =      4.60629  eV     1   --> A_1  D_1  S_1  
     e(  8 -  9) =      5.81456  eV     2   --> B_1  D_3  S_3  
     e(  8 -  9) =      5.81456  eV     2   --> B_2  D_4  S_4  
     e( 10 - 10) =      8.01164  eV     1   --> A_1  D_1  S_1  
     e( 11 - 11) =      9.49900  eV     1   --> A_1  D_1  S_1  
     e( 12 - 13) =     10.56709  eV     2   --> B_1  D_3  S_3  
     e( 12 - 13) =     10.56709  eV     2   --> B_2  D_4  S_4  

 **************************************************************************

 **************************************************************************

                    xk=(   0.00000,   0.00000,   0.17500  )

     Band symmetry, C_2v (mm2)  point group:

     e(  1 -  1) =     -8.49466  eV     1   --> A_1  D_1  S_1  
     e(  2 -  3) =     -8.48283  eV     2   --> B_1  D_3  S_3  
     e(  2 -  3) =     -8.48283  eV     2   --> B_2  D_4  S_4  
     e(  4 -  4) =     -8.41849  eV     1   --> A_1  D_1  S_1  
     e(  5 -  5) =     -8.41644  eV     1   --> A_2  D_2  S_2  
     e(  6 -  6) =     -6.06684  eV     1   --> A_1  D_1  S_1  
     e(  7 -  7) =      4.81888  eV     1   --> A_1  D_1  S_1  
     e(  8 -  9) =      5.90223  eV     2   --> B_1  D_3  S_3  
     e(  8 -  9) =      5.90223  eV     2   --> B_2  D_4  S_4  
     e( 10 - 10) =      7.81847  eV     1   --> A_1  D_1  S_1  
     e( 11 - 11) =      9.58647  eV     1   --> A_1  D_1  S_1  
     e( 12 - 13) =     10.43519  eV     2   --> B_1  D_3  S_3  
     e( 12 - 13) =     10.43519  eV     2   --> B_2  D_4  S_4  

 **************************************************************************

 **************************************************************************

                    xk=(   0.00000,   0.00000,   0.15000  )

     Band symmetry, C_2v (mm2)  point group:

     e(  1 -  1) =     -8.49240  eV     1   --> A_1  D_1  S_1  
     e(  2 -  3) =     -8.48361  eV     2   --> B_1  D_3  S_3  
     e(  2 -  3) =     -8.48361  eV     2   --> B_2  D_4  S_4  
     e(  4 -  4) =     -8.41818  eV     1   --> A_1  D_1  S_1  
     e(  5 -  5) =     -8.41667  eV     1   --> A_2  D_2  S_2  
     e(  6 -  6) =     -6.09643  eV     1   --> A_1  D_1  S_1  
     e(  7 -  7) =      5.03246  eV     1   --> A_1  D_1  S_1  
     e(  8 -  9) =      5.98332  eV     2   --> B_1  D_3  S_3  
     e(  8 -  9) =      5.98332  eV     2   --> B_2  D_4  S_4  
     e( 10 - 10) =      7.61796  eV     1   --> A_1  D_1  S_1  
     e( 11 - 11) =      9.67061  eV     1   --> A_1  D_1  S_1  
     e( 12 - 13) =     10.31568  eV     2   --> B_1  D_3  S_3  
     e( 12 - 13) =     10.31568  eV     2   --> B_2  D_4  S_4  

 **************************************************************************

 **************************************************************************

                    xk=(   0.00000,   0.00000,   0.12500  )

     Band symmetry, C_2v (mm2)  point group:

     e(  1 -  1) =     -8.49044  eV     1   --> A_1  D_1  S_1  
     e(  2 -  3) =     -8.48427  eV     2   --> B_1  D_3  S_3  
     e(  2 -  3) =     -8.48427  eV     2   --> B_2  D_4  S_4  
     e(  4 -  4) =     -8.41791  eV     1   --> A_1  D_1  S_1  
     e(  5 -  5) =     -8.41687  eV     1   --> A_2  D_2  S_2  
     e(  6 -  6) =     -6.12157  eV     1   --> A_1  D_1  S_1  
     e(  7 -  7) =      5.24683  eV     1   --> A_1  D_1  S_1  
     e(  8 -  9) =      6.05617  eV     2   --> B_1  D_3  S_3  
     e(  8 -  9) =      6.05617  eV     2   --> B_2  D_4  S_4  
     e( 10 - 10) =      7.41227  eV     1   --> A_1  D_1  S_1  
     e( 11 - 11) =      9.74847  eV     1   --> A_1  D_1  S_1  
     e( 12 - 13) =     10.21024  eV     2   --> B_1  D_3  S_3  
     e( 12 - 13) =     10.21024  eV     2   --> B_2  D_4  S_4  

 **************************************************************************

 **************************************************************************

                    xk=(   0.00000,   0.00000,   0.10000  )

     Band symmetry, C_2v (mm2)  point group:

     e(  1 -  1) =     -8.48880  eV     1   --> A_1  D_1  S_1  
     e(  2 -  3) =     -8.48482  eV     2   --> B_1  D_3  S_3  
     e(  2 -  3) =     -8.48482  eV     2   --> B_2  D_4  S_4  
     e(  4 -  4) =     -8.41770  eV     1   --> A_1  D_1  S_1  
     e(  5 -  5) =     -8.41703  eV     1   --> A_2  D_2  S_2  
     e(  6 -  6) =     -6.14219  eV     1   --> A_1  D_1  S_1  
     e(  7 -  7) =      5.46172  eV     1   --> A_1  D_1  S_1  
     e(  8 -  9) =      6.11906  eV     2   --> B_1  D_3  S_3  
     e(  8 -  9) =      6.11906  eV     2   --> B_2  D_4  S_4  
     e( 10 - 10) =      7.20300  eV     1   --> A_1  D_1  S_1  
     e( 11 - 11) =      9.81725  eV     1   --> A_1  D_1  S_1  
     e( 12 - 13) =     10.12064  eV     2   --> B_1  D_3  S_3  
     e( 12 - 13) =     10.12064  eV     2   --> B_2  D_4  S_4  

 **************************************************************************

 **************************************************************************

                    xk=(   0.00000,   0.00000,   0.07500  )

     Band symmetry, C_2v (mm2)  point group:

     e(  1 -  1) =     -8.48750  eV     1   --> A_1  D_1  S_1  
     e(  2 -  3) =     -8.48525  eV     2   --> B_1  D_3  S_3  
     e(  2 -  3) =     -8.48525  eV     2   --> B_2  D_4  S_4  
     e(  4 -  4) =     -8.41754  eV     1   --> A_1  D_1  S_1  
     e(  5 -  5) =     -8.41716  eV     1   --> A_2  D_2  S_2  
     e(  6 -  6) =     -6.15828  eV     1   --> A_1  D_1  S_1  
     e(  7 -  7) =      5.67663  eV     1   --> A_1  D_1  S_1  
     e(  8 -  9) =      6.17025  eV     2   --> B_1  D_3  S_3  
     e(  8 -  9) =      6.17025  eV     2   --> B_2  D_4  S_4  
     e( 10 - 10) =      6.99163  eV     1   --> A_1  D_1  S_1  
     e( 11 - 11) =      9.87428  eV     1   --> A_1  D_1  S_1  
     e( 12 - 13) =     10.04864  eV     2   --> B_1  D_3  S_3  
     e( 12 - 13) =     10.04864  eV     2   --> B_2  D_4  S_4  

 **************************************************************************

 **************************************************************************

                    xk=(   0.00000,   0.00000,   0.05000  )

     Band symmetry, C_2v (mm2)  point group:

     e(  1 -  1) =     -8.48657  eV     1   --> A_1  D_1  S_1  
     e(  2 -  3) =     -8.48556  eV     2   --> B_1  D_3  S_3  
     e(  2 -  3) =     -8.48556  eV     2   --> B_2  D_4  S_4  
     e(  4 -  4) =     -8.41743  eV     1   --> A_1  D_1  S_1  
     e(  5 -  5) =     -8.41726  eV     1   --> A_2  D_2  S_2  
     e(  6 -  6) =     -6.16979  eV     1   --> A_1  D_1  S_1  
     e(  7 -  7) =      5.89033  eV     1   --> A_1  D_1  S_1  
     e(  8 -  9) =      6.20817  eV     2   --> B_1  D_3  S_3  
     e(  8 -  9) =      6.20817  eV     2   --> B_2  D_4  S_4  
     e( 10 - 10) =      6.78001  eV     1   --> A_1  D_1  S_1  
     e( 11 - 11) =      9.91712  eV     1   --> A_1  D_1  S_1  
     e( 12 - 13) =      9.99585  eV     2   --> B_1  D_3  S_3  
     e( 12 - 13) =      9.99585  eV     2   --> B_2  D_4  S_4  

 **************************************************************************

 **************************************************************************

                    xk=(   0.00000,   0.00000,   0.02500  )

     Band symmetry, C_2v (mm2)  point group:

     e(  1 -  1) =     -8.48599  eV     1   --> A_1  D_1  S_1  
     e(  2 -  3) =     -8.48575  eV     2   --> B_1  D_3  S_3  
     e(  2 -  3) =     -8.48575  eV     2   --> B_2  D_4  S_4  
     e(  4 -  5) =     -8.41736  eV     2   --> A_1  D_1  S_1  
     e(  4 -  5) =     -8.41736  eV     2   --> A_2  D_2  S_2  
     e(  6 -  6) =     -6.17670  eV     1   --> A_1  D_1  S_1  
     e(  7 -  7) =      6.09793  eV     1   --> A_1  D_1  S_1  
     e(  8 -  9) =      6.23149  eV     2   --> B_1  D_3  S_3  
     e(  8 -  9) =      6.23149  eV     2   --> B_2  D_4  S_4  
     e( 10 - 10) =      6.57350  eV     1   --> A_1  D_1  S_1  
     e( 11 - 11) =      9.94372  eV     1   --> A_1  D_1  S_1  
     e( 12 - 13) =      9.96360  eV     2   --> B_1  D_3  S_3  
     e( 12 - 13) =      9.96360  eV     2   --> B_2  D_4  S_4  

 **************************************************************************

 **************************************************************************

                    xk=(   0.00000,   0.00000,   0.00000  )

     point group T_d (-43m) 
     there are  5 classes
     the character table:

       E     8C3   3C2   6S4   6s_d 
A_1    1.00  1.00  1.00  1.00  1.00
A_2    1.00  1.00  1.00 -1.00 -1.00
E      2.00 -1.00  2.00  0.00  0.00
T_1    3.00  0.00 -1.00  1.00 -1.00
T_2    3.00  0.00 -1.00 -1.00  1.00

     the symmetry operations in each class and the name of the first element:

     E        1
                                                                 
     8C3      5    7    8    6   12    9   10   11
                                                                 
     3C2      2    3    4
                                                                 
     6S4     15   16   20   19   23   24
                                                                 
     6s_d    13   14   17   18   21   22
                                                                 

     Band symmetry, T_d (-43m)  point group:

     e(  1 -  3) =     -8.48580  eV     3   --> T_2  G_15 P_4  
     e(  4 -  5) =     -8.41732  eV     2   --> E    G_12 P_3  
     e(  6 -  6) =     -6.17900  eV     1   --> A_1  G_1  P_1  
     e(  7 -  9) =      6.23937  eV     3   --> T_2  G_15 P_4  
     e( 10 - 10) =      6.43240  eV     1   --> A_1  G_1  P_1  
     e( 11 - 13) =      9.95275  eV     3   --> T_2  G_15 P_4  

 **************************************************************************

 **************************************************************************

                    xk=(  -0.01250,   0.01250,   0.01250  )

     point group C_3v (3m)  
     there are  3 classes
     the character table:

       E     2C3   3s_v 
A_1    1.00  1.00  1.00
A_2    1.00  1.00 -1.00
E      2.00 -1.00  0.00

     the symmetry operations in each class and the name of the first element:

     E        1
                                                                 
     2C3      2    3
                                                                 
     3s_v     4    5    6
                                                                 

     Band symmetry, C_3v (3m)   point group:

     e(  1 -  1) =     -8.48592  eV     1   --> A_1  L_1       
     e(  2 -  3) =     -8.48577  eV     2   --> E    L_3       
     e(  4 -  5) =     -8.41733  eV     2   --> E    L_3       
     e(  6 -  6) =     -6.17728  eV     1   --> A_1  L_1       
     e(  7 -  7) =      6.11949  eV     1   --> A_1  L_1       
     e(  8 -  9) =      6.23682  eV     2   --> E    L_3       
     e( 10 - 10) =      6.54526  eV     1   --> A_1  L_1       
     e( 11 - 11) =      9.95455  eV     1   --> A_1  L_1       
     e( 12 - 13) =      9.95661  eV     2   --> E    L_3       

 **************************************************************************

 **************************************************************************

                    xk=(  -0.02500,   0.02500,   0.02500  )

     Band symmetry, C_3v (3m)   point group:

     e(  1 -  1) =     -8.48627  eV     1   --> A_1  L_1       
     e(  2 -  3) =     -8.48568  eV     2   --> E    L_3       
     e(  4 -  5) =     -8.41734  eV     2   --> E    L_3       
     e(  6 -  6) =     -6.17209  eV     1   --> A_1  L_1       
     e(  7 -  7) =      5.93148  eV     1   --> A_1  L_1       
     e(  8 -  9) =      6.22923  eV     2   --> E    L_3       
     e( 10 - 10) =      6.71206  eV     1   --> A_1  L_1       
     e( 11 - 11) =      9.96034  eV     1   --> A_1  L_1       
     e( 12 - 13) =      9.96813  eV     2   --> E    L_3       

 **************************************************************************

 **************************************************************************

                    xk=(  -0.03750,   0.03750,   0.03750  )

     Band symmetry, C_3v (3m)   point group:

     e(  1 -  1) =     -8.48684  eV     1   --> A_1  L_1       
     e(  2 -  3) =     -8.48552  eV     2   --> E    L_3       
     e(  4 -  5) =     -8.41735  eV     2   --> E    L_3       
     e(  6 -  6) =     -6.16346  eV     1   --> A_1  L_1       
     e(  7 -  7) =      5.73169  eV     1   --> A_1  L_1       
     e(  8 -  9) =      6.21673  eV     2   --> E    L_3       
     e( 10 - 10) =      6.87588  eV     1   --> A_1  L_1       
     e( 11 - 11) =      9.97119  eV     1   --> A_1  L_1       
     e( 12 - 13) =      9.98709  eV     2   --> E    L_3       

 **************************************************************************

 **************************************************************************

                    xk=(  -0.05000,   0.05000,   0.05000  )

     Band symmetry, C_3v (3m)   point group:

     e(  1 -  1) =     -8.48763  eV     1   --> A_1  L_1       
     e(  2 -  3) =     -8.48529  eV     2   --> E    L_3       
     e(  4 -  5) =     -8.41736  eV     2   --> E    L_3       
     e(  6 -  6) =     -6.15140  eV     1   --> A_1  L_1       
     e(  7 -  7) =      5.52622  eV     1   --> A_1  L_1       
     e(  8 -  9) =      6.19956  eV     2   --> E    L_3       
     e( 10 - 10) =      7.02982  eV     1   --> A_1  L_1       
     e( 11 - 11) =      9.98875  eV     1   --> A_1  L_1       
     e( 12 - 13) =     10.01312  eV     2   --> E    L_3       

 **************************************************************************

 **************************************************************************

                    xk=(  -0.06250,   0.06250,   0.06250  )

     Band symmetry, C_3v (3m)   point group:

     e(  1 -  1) =     -8.48863  eV     1   --> A_1  L_1       
     e(  2 -  3) =     -8.48501  eV     2   --> E    L_3       
     e(  4 -  5) =     -8.41737  eV     2   --> E    L_3       
     e(  6 -  6) =     -6.13593  eV     1   --> A_1  L_1       
     e(  7 -  7) =      5.31703  eV     1   --> A_1  L_1       
     e(  8 -  9) =      6.17802  eV     2   --> E    L_3       
     e( 10 - 10) =      7.17084  eV     1   --> A_1  L_1       
     e( 11 - 11) =     10.01515  eV     1   --> A_1  L_1       
     e( 12 - 13) =     10.04576  eV     2   --> E    L_3       

 **************************************************************************

 **************************************************************************

                    xk=(  -0.07500,   0.07500,   0.07500  )

     Band symmetry, C_3v (3m)   point group:

     e(  1 -  1) =     -8.48984  eV     1   --> A_1  L_1       
     e(  2 -  3) =     -8.48466  eV     2   --> E    L_3       
     e(  4 -  5) =     -8.41738  eV     2   --> E    L_3       
     e(  6 -  6) =     -6.11708  eV     1   --> A_1  L_1       
     e(  7 -  7) =      5.10523  eV     1   --> A_1  L_1       
     e(  8 -  9) =      6.15247  eV     2   --> E    L_3       
     e( 10 - 10) =      7.29675  eV     1   --> A_1  L_1       
     e( 11 - 11) =     10.05269  eV     1   --> A_1  L_1       
     e( 12 - 13) =     10.08440  eV     2   --> E    L_3       

 **************************************************************************

 **************************************************************************

                    xk=(  -0.08750,   0.08750,   0.08750  )

     Band symmetry, C_3v (3m)   point group:

     e(  1 -  1) =     -8.49124  eV     1   --> A_1  L_1       
     e(  2 -  3) =     -8.48426  eV     2   --> E    L_3       
     e(  4 -  5) =     -8.41738  eV     2   --> E    L_3       
     e(  6 -  6) =     -6.09489  eV     1   --> A_1  L_1       
     e(  7 -  7) =      4.89163  eV     1   --> A_1  L_1       
     e(  8 -  9) =      6.12330  eV     2   --> E    L_3       
     e( 10 - 10) =      7.40580  eV     1   --> A_1  L_1       
     e( 11 - 11) =     10.10358  eV     1   --> A_1  L_1       
     e( 12 - 13) =     10.12835  eV     2   --> E    L_3       

 **************************************************************************

 **************************************************************************

                    xk=(  -0.10000,   0.10000,   0.10000  )

     Band symmetry, C_3v (3m)   point group:

     e(  1 -  1) =     -8.49282  eV     1   --> A_1  L_1       
     e(  2 -  3) =     -8.48381  eV     2   --> E    L_3       
     e(  4 -  5) =     -8.41739  eV     2   --> E    L_3       
     e(  6 -  6) =     -6.06940  eV     1   --> A_1  L_1       
     e(  7 -  7) =      4.67690  eV     1   --> A_1  L_1       
     e(  8 -  9) =      6.09096  eV     2   --> E    L_3       
     e( 10 - 10) =      7.49680  eV     1   --> A_1  L_1       
     e( 11 - 11) =     10.16963  eV     1   --> A_1  L_1       
     e( 12 - 13) =     10.17684  eV     2   --> E    L_3       

 **************************************************************************

 **************************************************************************

                    xk=(  -0.11250,   0.11250,   0.11250  )

     Band symmetry, C_3v (3m)   point group:

     e(  1 -  1) =     -8.49457  eV     1   --> A_1  L_1       
     e(  2 -  3) =     -8.48331  eV     2   --> E    L_3       
     e(  4 -  5) =     -8.41739  eV     2   --> E    L_3       
     e(  6 -  6) =     -6.04067  eV     1   --> A_1  L_1       
     e(  7 -  7) =      4.46160  eV     1   --> A_1  L_1       
     e(  8 -  9) =      6.05588  eV     2   --> E    L_3       
     e( 10 - 10) =      7.56932  eV     1   --> A_1  L_1       
     e( 11 - 12) =     10.22902  eV     2   --> E    L_3       
     e( 13 - 13) =     10.25200  eV     1   --> A_1  L_1       

 **************************************************************************

 **************************************************************************

                    xk=(  -0.12500,   0.12500,   0.12500  )

     Band symmetry, C_3v (3m)   point group:

     e(  1 -  1) =     -8.49647  eV     1   --> A_1  L_1       
     e(  2 -  3) =     -8.48277  eV     2   --> E    L_3       
     e(  4 -  5) =     -8.41739  eV     2   --> E    L_3       
     e(  6 -  6) =     -6.00875  eV     1   --> A_1  L_1       
     e(  7 -  7) =      4.24624  eV     1   --> A_1  L_1       
     e(  8 -  9) =      6.01850  eV     2   --> E    L_3       
     e( 10 - 10) =      7.62370  eV     1   --> A_1  L_1       
     e( 11 - 12) =     10.28402  eV     2   --> E    L_3       
     e( 13 - 13) =     10.35100  eV     1   --> A_1  L_1       

 **************************************************************************

 **************************************************************************

                    xk=(  -0.13750,   0.13750,   0.13750  )

     Band symmetry, C_3v (3m)   point group:

     e(  1 -  1) =     -8.49851  eV     1   --> A_1  L_1       
     e(  2 -  3) =     -8.48219  eV     2   --> E    L_3       
     e(  4 -  5) =     -8.41738  eV     2   --> E    L_3       
     e(  6 -  6) =     -5.97370  eV     1   --> A_1  L_1       
     e(  7 -  7) =      4.03127  eV     1   --> A_1  L_1       
     e(  8 -  9) =      5.97924  eV     2   --> E    L_3       
     e( 10 - 10) =      7.66107  eV     1   --> A_1  L_1       
     e( 11 - 12) =     10.34090  eV     2   --> E    L_3       
     e( 13 - 13) =     10.46617  eV     1   --> A_1  L_1       

 **************************************************************************

 **************************************************************************

                    xk=(  -0.15000,   0.15000,   0.15000  )

     Band symmetry, C_3v (3m)   point group:

     e(  1 -  1) =     -8.50067  eV     1   --> A_1  L_1       
     e(  2 -  3) =     -8.48158  eV     2   --> E    L_3       
     e(  4 -  5) =     -8.41736  eV     2   --> E    L_3       
     e(  6 -  6) =     -5.93561  eV     1   --> A_1  L_1       
     e(  7 -  7) =      3.81714  eV     1   --> A_1  L_1       
     e(  8 -  9) =      5.93854  eV     2   --> E    L_3       
     e( 10 - 10) =      7.68316  eV     1   --> A_1  L_1       
     e( 11 - 12) =     10.39871  eV     2   --> E    L_3       
     e( 13 - 13) =     10.59638  eV     1   --> A_1  L_1       

 **************************************************************************

 **************************************************************************

                    xk=(  -0.16250,   0.16250,   0.16250  )

     Band symmetry, C_3v (3m)   point group:

     e(  1 -  1) =     -8.50294  eV     1   --> A_1  L_1       
     e(  2 -  3) =     -8.48094  eV     2   --> E    L_3       
     e(  4 -  5) =     -8.41734  eV     2   --> E    L_3       
     e(  6 -  6) =     -5.89456  eV     1   --> A_1  L_1       
     e(  7 -  7) =      3.60423  eV     1   --> A_1  L_1       
     e(  8 -  9) =      5.89676  eV     2   --> E    L_3       
     e( 10 - 10) =      7.69201  eV     1   --> A_1  L_1       
     e( 11 - 12) =     10.45651  eV     2   --> E    L_3       
     e( 13 - 13) =     10.74012  eV     1   --> A_1  L_1       

 **************************************************************************

 **************************************************************************

                    xk=(  -0.17500,   0.17500,   0.17500  )

     Band symmetry, C_3v (3m)   point group:

     e(  1 -  1) =     -8.50530  eV     1   --> A_1  L_1       
     e(  2 -  3) =     -8.48028  eV     2   --> E    L_3       
     e(  4 -  5) =     -8.41730  eV     2   --> E    L_3       
     e(  6 -  6) =     -5.85064  eV     1   --> A_1  L_1       
     e(  7 -  7) =      3.39292  eV     1   --> A_1  L_1       
     e(  8 -  9) =      5.85428  eV     2   --> E    L_3       
     e( 10 - 10) =      7.68977  eV     1   --> A_1  L_1       
     e( 11 - 12) =     10.51335  eV     2   --> E    L_3       
     e( 13 - 13) =     10.89568  eV     1   --> A_1  L_1       

 **************************************************************************

 **************************************************************************

                    xk=(  -0.18750,   0.18750,   0.18750  )

     Band symmetry, C_3v (3m)   point group:

     e(  1 -  1) =     -8.50773  eV     1   --> A_1  L_1       
     e(  2 -  3) =     -8.47960  eV     2   --> E    L_3       
     e(  4 -  5) =     -8.41725  eV     2   --> E    L_3       
     e(  6 -  6) =     -5.80397  eV     1   --> A_1  L_1       
     e(  7 -  7) =      3.18358  eV     1   --> A_1  L_1       
     e(  8 -  9) =      5.81143  eV     2   --> E    L_3       
     e( 10 - 10) =      7.67853  eV     1   --> A_1  L_1       
     e( 11 - 12) =     10.56832  eV     2   --> E    L_3       
     e( 13 - 13) =     11.06135  eV     1   --> A_1  L_1       

 **************************************************************************

 **************************************************************************

                    xk=(  -0.20000,   0.20000,   0.20000  )

     Band symmetry, C_3v (3m)   point group:

     e(  1 -  1) =     -8.51021  eV     1   --> A_1  L_1       
     e(  2 -  3) =     -8.47891  eV     2   --> E    L_3       
     e(  4 -  5) =     -8.41718  eV     2   --> E    L_3       
     e(  6 -  6) =     -5.75466  eV     1   --> A_1  L_1       
     e(  7 -  7) =      2.97655  eV     1   --> A_1  L_1       
     e(  8 -  9) =      5.76852  eV     2   --> E    L_3       
     e( 10 - 10) =      7.66016  eV     1   --> A_1  L_1       
     e( 11 - 12) =     10.62059  eV     2   --> E    L_3       
     e( 13 - 13) =     11.23553  eV     1   --> A_1  L_1       

 **************************************************************************

 **************************************************************************

                    xk=(  -0.21250,   0.21250,   0.21250  )

     Band symmetry, C_3v (3m)   point group:

     e(  1 -  1) =     -8.51273  eV     1   --> A_1  L_1       
     e(  2 -  3) =     -8.47822  eV     2   --> E    L_3       
     e(  4 -  5) =     -8.41710  eV     2   --> E    L_3       
     e(  6 -  6) =     -5.70284  eV     1   --> A_1  L_1       
     e(  7 -  7) =      2.77220  eV     1   --> A_1  L_1       
     e(  8 -  9) =      5.72583  eV     2   --> E    L_3       
     e( 10 - 10) =      7.63633  eV     1   --> A_1  L_1       
     e( 11 - 12) =     10.66938  eV     2   --> E    L_3       
     e( 13 - 13) =     11.41678  eV     1   --> A_1  L_1       

 **************************************************************************

 **************************************************************************

                    xk=(  -0.22500,   0.22500,   0.22500  )

     Band symmetry, C_3v (3m)   point group:

     e(  1 -  1) =     -8.51527  eV     1   --> A_1  L_1       
     e(  2 -  3) =     -8.47753  eV     2   --> E    L_3       
     e(  4 -  5) =     -8.41700  eV     2   --> E    L_3       
     e(  6 -  6) =     -5.64868  eV     1   --> A_1  L_1       
     e(  7 -  7) =      2.57085  eV     1   --> A_1  L_1       
     e(  8 -  9) =      5.68362  eV     2   --> E    L_3       
     e( 10 - 10) =      7.60843  eV     1   --> A_1  L_1       
     e( 11 - 12) =     10.71406  eV     2   --> E    L_3       
     e( 13 - 13) =     11.60379  eV     1   --> A_1  L_1       

 **************************************************************************

 **************************************************************************

                    xk=(  -0.23750,   0.23750,   0.23750  )

     Band symmetry, C_3v (3m)   point group:

     e(  1 -  1) =     -8.51782  eV     1   --> A_1  L_1       
     e(  2 -  3) =     -8.47684  eV     2   --> E    L_3       
     e(  4 -  5) =     -8.41688  eV     2   --> E    L_3       
     e(  6 -  6) =     -5.59233  eV     1   --> A_1  L_1       
     e(  7 -  7) =      2.37285  eV     1   --> A_1  L_1       
     e(  8 -  9) =      5.64211  eV     2   --> E    L_3       
     e( 10 - 10) =      7.57764  eV     1   --> A_1  L_1       
     e( 11 - 12) =     10.75413  eV     2   --> E    L_3       
     e( 13 - 13) =     11.79538  eV     1   --> A_1  L_1       

 **************************************************************************

 **************************************************************************

                    xk=(  -0.25000,   0.25000,   0.25000  )

     Band symmetry, C_3v (3m)   point group:

     e(  1 -  1) =     -8.52036  eV     1   --> A_1  L_1       
     e(  2 -  3) =     -8.47617  eV     2   --> E    L_3       
     e(  4 -  5) =     -8.41675  eV     2   --> E    L_3       
     e(  6 -  6) =     -5.53398  eV     1   --> A_1  L_1       
     e(  7 -  7) =      2.17856  eV     1   --> A_1  L_1       
     e(  8 -  9) =      5.60151  eV     2   --> E    L_3       
     e( 10 - 10) =      7.54495  eV     1   --> A_1  L_1       
     e( 11 - 12) =     10.78922  eV     2   --> E    L_3       
     e( 13 - 13) =     11.99043  eV     1   --> A_1  L_1       

 **************************************************************************

 **************************************************************************

                    xk=(  -0.26250,   0.26250,   0.26250  )

     Band symmetry, C_3v (3m)   point group:

     e(  1 -  1) =     -8.52288  eV     1   --> A_1  L_1       
     e(  2 -  3) =     -8.47551  eV     2   --> E    L_3       
     e(  4 -  5) =     -8.41660  eV     2   --> E    L_3       
     e(  6 -  6) =     -5.47387  eV     1   --> A_1  L_1       
     e(  7 -  7) =      1.98834  eV     1   --> A_1  L_1       
     e(  8 -  9) =      5.56201  eV     2   --> E    L_3       
     e( 10 - 10) =      7.51115  eV     1   --> A_1  L_1       
     e( 11 - 12) =     10.81916  eV     2   --> E    L_3       
     e( 13 - 13) =     12.18784  eV     1   --> A_1  L_1       

 **************************************************************************

 **************************************************************************

                    xk=(  -0.27500,   0.27500,   0.27500  )

     Band symmetry, C_3v (3m)   point group:

     e(  1 -  1) =     -8.52535  eV     1   --> A_1  L_1       
     e(  2 -  3) =     -8.47487  eV     2   --> E    L_3       
     e(  4 -  5) =     -8.41643  eV     2   --> E    L_3       
     e(  6 -  6) =     -5.41221  eV     1   --> A_1  L_1       
     e(  7 -  7) =      1.80256  eV     1   --> A_1  L_1       
     e(  8 -  9) =      5.52377  eV     2   --> E    L_3       
     e( 10 - 10) =      7.47691  eV     1   --> A_1  L_1       
     e( 11 - 12) =     10.84393  eV     2   --> E    L_3       
     e( 13 - 13) =     12.38643  eV     1   --> A_1  L_1       

 **************************************************************************

 **************************************************************************

                    xk=(  -0.28750,   0.28750,   0.28750  )

     Band symmetry, C_3v (3m)   point group:

     e(  1 -  1) =     -8.52778  eV     1   --> A_1  L_1       
     e(  2 -  3) =     -8.47426  eV     2   --> E    L_3       
     e(  4 -  5) =     -8.41625  eV     2   --> E    L_3       
     e(  6 -  6) =     -5.34929  eV     1   --> A_1  L_1       
     e(  7 -  7) =      1.62162  eV     1   --> A_1  L_1       
     e(  8 -  9) =      5.48694  eV     2   --> E    L_3       
     e( 10 - 10) =      7.44276  eV     1   --> A_1  L_1       
     e( 11 - 12) =     10.86368  eV     2   --> E    L_3       
     e( 13 - 13) =     12.58485  eV     1   --> A_1  L_1       

 **************************************************************************

 **************************************************************************

                    xk=(  -0.30000,   0.30000,   0.30000  )

     Band symmetry, C_3v (3m)   point group:

     e(  1 -  1) =     -8.53013  eV     1   --> A_1  L_1       
     e(  2 -  3) =     -8.47368  eV     2   --> E    L_3       
     e(  4 -  5) =     -8.41606  eV     2   --> E    L_3       
     e(  6 -  6) =     -5.28541  eV     1   --> A_1  L_1       
     e(  7 -  7) =      1.44594  eV     1   --> A_1  L_1       
     e(  8 -  9) =      5.45165  eV     2   --> E    L_3       
     e( 10 - 10) =      7.40915  eV     1   --> A_1  L_1       
     e( 11 - 12) =     10.87868  eV     2   --> E    L_3       
     e( 13 - 13) =     12.78145  eV     1   --> A_1  L_1       

 **************************************************************************

 **************************************************************************

                    xk=(  -0.31250,   0.31250,   0.31250  )

     Band symmetry, C_3v (3m)   point group:

     e(  1 -  1) =     -8.53241  eV     1   --> A_1  L_1       
     e(  2 -  3) =     -8.47312  eV     2   --> E    L_3       
     e(  4 -  5) =     -8.41585  eV     2   --> E    L_3       
     e(  6 -  6) =     -5.22092  eV     1   --> A_1  L_1       
     e(  7 -  7) =      1.27596  eV     1   --> A_1  L_1       
     e(  8 -  9) =      5.41803  eV     2   --> E    L_3       
     e( 10 - 10) =      7.37645  eV     1   --> A_1  L_1       
     e( 11 - 12) =     10.88931  eV     2   --> E    L_3       
     e( 13 - 13) =     12.97410  eV     1   --> A_1  L_1       

 **************************************************************************

 **************************************************************************

                    xk=(  -0.32500,   0.32500,   0.32500  )

     Band symmetry, C_3v (3m)   point group:

     e(  1 -  1) =     -8.53460  eV     1   --> A_1  L_1       
     e(  2 -  3) =     -8.47260  eV     2   --> E    L_3       
     e(  4 -  5) =     -8.41563  eV     2   --> E    L_3       
     e(  6 -  6) =     -5.15620  eV     1   --> A_1  L_1       
     e(  7 -  7) =      1.11216  eV     1   --> A_1  L_1       
     e(  8 -  9) =      5.38617  eV     2   --> E    L_3       
     e( 10 - 10) =      7.34495  eV     1   --> A_1  L_1       
     e( 11 - 12) =     10.89606  eV     2   --> E    L_3       
     e( 13 - 13) =     13.15998  eV     1   --> A_1  L_1       

 **************************************************************************

 **************************************************************************

                    xk=(  -0.33750,   0.33750,   0.33750  )

     Band symmetry, C_3v (3m)   point group:

     e(  1 -  1) =     -8.53668  eV     1   --> A_1  L_1       
     e(  2 -  3) =     -8.47212  eV     2   --> E    L_3       
     e(  4 -  5) =     -8.41541  eV     2   --> E    L_3       
     e(  6 -  6) =     -5.09169  eV     1   --> A_1  L_1       
     e(  7 -  7) =      0.95507  eV     1   --> A_1  L_1       
     e(  8 -  9) =      5.35617  eV     2   --> E    L_3       
     e( 10 - 10) =      7.31491  eV     1   --> A_1  L_1       
     e( 11 - 12) =     10.89944  eV     2   --> E    L_3       
     e( 13 - 13) =     13.33534  eV     1   --> A_1  L_1       

 **************************************************************************

 **************************************************************************

                    xk=(  -0.35000,   0.35000,   0.35000  )

     Band symmetry, C_3v (3m)   point group:

     e(  1 -  1) =     -8.53866  eV     1   --> A_1  L_1       
     e(  2 -  3) =     -8.47167  eV     2   --> E    L_3       
     e(  4 -  5) =     -8.41518  eV     2   --> E    L_3       
     e(  6 -  6) =     -5.02787  eV     1   --> A_1  L_1       
     e(  7 -  7) =      0.80524  eV     1   --> A_1  L_1       
     e(  8 -  9) =      5.32811  eV     2   --> E    L_3       
     e( 10 - 10) =      7.28651  eV     1   --> A_1  L_1       
     e( 11 - 12) =     10.90001  eV     2   --> E    L_3       
     e( 13 - 13) =     13.49545  eV     1   --> A_1  L_1       

 **************************************************************************

 **************************************************************************

                    xk=(  -0.36250,   0.36250,   0.36250  )

     Band symmetry, C_3v (3m)   point group:

     e(  1 -  1) =     -8.54051  eV     1   --> A_1  L_1       
     e(  2 -  3) =     -8.47126  eV     2   --> E    L_3       
     e(  4 -  5) =     -8.41496  eV     2   --> E    L_3       
     e(  6 -  6) =     -4.96529  eV     1   --> A_1  L_1       
     e(  7 -  7) =      0.66328  eV     1   --> A_1  L_1       
     e(  8 -  9) =      5.30206  eV     2   --> E    L_3       
     e( 10 - 10) =      7.25994  eV     1   --> A_1  L_1       
     e( 11 - 12) =     10.89831  eV     2   --> E    L_3       
     e( 13 - 13) =     13.63497  eV     1   --> A_1  L_1       

 **************************************************************************

 **************************************************************************

                    xk=(  -0.37500,   0.37500,   0.37500  )

     Band symmetry, C_3v (3m)   point group:

     e(  1 -  1) =     -8.54223  eV     1   --> A_1  L_1       
     e(  2 -  3) =     -8.47089  eV     2   --> E    L_3       
     e(  4 -  5) =     -8.41474  eV     2   --> E    L_3       
     e(  6 -  6) =     -4.90454  eV     1   --> A_1  L_1       
     e(  7 -  7) =      0.52987  eV     1   --> A_1  L_1       
     e(  8 -  9) =      5.27808  eV     2   --> E    L_3       
     e( 10 - 10) =      7.23532  eV     1   --> A_1  L_1       
     e( 11 - 12) =     10.89489  eV     2   --> E    L_3       
     e( 13 - 13) =     13.74931  eV     1   --> A_1  L_1       

 **************************************************************************

 **************************************************************************

                    xk=(  -0.38750,   0.38750,   0.38750  )

     Band symmetry, C_3v (3m)   point group:

     e(  1 -  1) =     -8.54382  eV     1   --> A_1  L_1       
     e(  2 -  3) =     -8.47055  eV     2   --> E    L_3       
     e(  4 -  5) =     -8.41453  eV     2   --> E    L_3       
     e(  6 -  6) =     -4.84627  eV     1   --> A_1  L_1       
     e(  7 -  7) =      0.40569  eV     1   --> A_1  L_1       
     e(  8 -  9) =      5.25624  eV     2   --> E    L_3       
     e( 10 - 10) =      7.21278  eV     1   --> A_1  L_1       
     e( 11 - 12) =     10.89024  eV     2   --> E    L_3       
     e( 13 - 13) =     13.83645  eV     1   --> A_1  L_1       

 **************************************************************************

 **************************************************************************

                    xk=(  -0.40000,   0.40000,   0.40000  )

     Band symmetry, C_3v (3m)   point group:

     e(  1 -  1) =     -8.54525  eV     1   --> A_1  L_1       
     e(  2 -  3) =     -8.47025  eV     2   --> E    L_3       
     e(  4 -  5) =     -8.41432  eV     2   --> E    L_3       
     e(  6 -  6) =     -4.79118  eV     1   --> A_1  L_1       
     e(  7 -  7) =      0.29150  eV     1   --> A_1  L_1       
     e(  8 -  9) =      5.23658  eV     2   --> E    L_3       
     e( 10 - 10) =      7.19241  eV     1   --> A_1  L_1       
     e( 11 - 12) =     10.88483  eV     2   --> E    L_3       
     e( 13 - 13) =     13.89805  eV     1   --> A_1  L_1       

 **************************************************************************

 **************************************************************************

                    xk=(  -0.41250,   0.41250,   0.41250  )

     Band symmetry, C_3v (3m)   point group:

     e(  1 -  1) =     -8.54653  eV     1   --> A_1  L_1       
     e(  2 -  3) =     -8.46999  eV     2   --> E    L_3       
     e(  4 -  5) =     -8.41413  eV     2   --> E    L_3       
     e(  6 -  6) =     -4.74002  eV     1   --> A_1  L_1       
     e(  7 -  7) =      0.18809  eV     1   --> A_1  L_1       
     e(  8 -  9) =      5.21914  eV     2   --> E    L_3       
     e( 10 - 10) =      7.17428  eV     1   --> A_1  L_1       
     e( 11 - 12) =     10.87908  eV     2   --> E    L_3       
     e( 13 - 13) =     13.93868  eV     1   --> A_1  L_1       

 **************************************************************************

 **************************************************************************

                    xk=(  -0.42500,   0.42500,   0.42500  )

     Band symmetry, C_3v (3m)   point group:

     e(  1 -  1) =     -8.54765  eV     1   --> A_1  L_1       
     e(  2 -  3) =     -8.46976  eV     2   --> E    L_3       
     e(  4 -  5) =     -8.41396  eV     2   --> E    L_3       
     e(  6 -  6) =     -4.69355  eV     1   --> A_1  L_1       
     e(  7 -  7) =      0.09627  eV     1   --> A_1  L_1       
     e(  8 -  9) =      5.20395  eV     2   --> E    L_3       
     e( 10 - 10) =      7.15846  eV     1   --> A_1  L_1       
     e( 11 - 12) =     10.87336  eV     2   --> E    L_3       
     e( 13 - 13) =     13.96382  eV     1   --> A_1  L_1       

 **************************************************************************

 **************************************************************************

                    xk=(  -0.43750,   0.43750,   0.43750  )

     Band symmetry, C_3v (3m)   point group:

     e(  1 -  1) =     -8.54861  eV     1   --> A_1  L_1       
     e(  2 -  3) =     -8.46958  eV     2   --> E    L_3       
     e(  4 -  5) =     -8.41380  eV     2   --> E    L_3       
     e(  6 -  6) =     -4.65254  eV     1   --> A_1  L_1       
     e(  7 -  7) =      0.01684  eV     1   --> A_1  L_1       
     e(  8 -  9) =      5.19106  eV     2   --> E    L_3       
     e( 10 - 10) =      7.14499  eV     1   --> A_1  L_1       
     e( 11 - 12) =     10.86798  eV     2   --> E    L_3       
     e( 13 - 13) =     13.97841  eV     1   --> A_1  L_1       

 **************************************************************************

 **************************************************************************

                    xk=(  -0.45000,   0.45000,   0.45000  )

     Band symmetry, C_3v (3m)   point group:

     e(  1 -  1) =     -8.54940  eV     1   --> A_1  L_1       
     e(  2 -  3) =     -8.46942  eV     2   --> E    L_3       
     e(  4 -  5) =     -8.41368  eV     2   --> E    L_3       
     e(  6 -  6) =     -4.61776  eV     1   --> A_1  L_1       
     e(  7 -  7) =     -0.04943  eV     1   --> A_1  L_1       
     e(  8 -  9) =      5.18047  eV     2   --> E    L_3       
     e( 10 - 10) =      7.13392  eV     1   --> A_1  L_1       
     e( 11 - 12) =     10.86323  eV     2   --> E    L_3       
     e( 13 - 13) =     13.98627  eV     1   --> A_1  L_1       

 **************************************************************************

 **************************************************************************

                    xk=(  -0.46250,   0.46250,   0.46250  )

     Band symmetry, C_3v (3m)   point group:

     e(  1 -  1) =     -8.55003  eV     1   --> A_1  L_1       
     e(  2 -  3) =     -8.46930  eV     2   --> E    L_3       
     e(  4 -  5) =     -8.41358  eV     2   --> E    L_3       
     e(  6 -  6) =     -4.58988  eV     1   --> A_1  L_1       
     e(  7 -  7) =     -0.10182  eV     1   --> A_1  L_1       
     e(  8 -  9) =      5.17222  eV     2   --> E    L_3       
     e( 10 - 10) =      7.12528  eV     1   --> A_1  L_1       
     e( 11 - 12) =     10.85931  eV     2   --> E    L_3       
     e( 13 - 13) =     13.99010  eV     1   --> A_1  L_1       

 **************************************************************************

[...]
     e(  5 -  5) =     -8.41523  eV     1   --> A'             
     e(  6 -  6) =     -5.47776  eV     1   --> A'             
     e(  7 -  7) =      2.32682  eV     1   --> A'             
     e(  8 -  8) =      4.38989  eV     1   --> A'             
     e(  9 -  9) =      5.78742  eV     1   --> A''            
     e( 10 - 10) =      8.58952  eV     1   --> A'             
     e( 11 - 11) =     10.57260  eV     1   --> A'             
     e( 12 - 12) =     10.70339  eV     1   --> A''            
     e( 13 - 13) =     11.78476  eV     1   --> A'             

 **************************************************************************

 **************************************************************************

                    xk=(  -0.30000,   0.00000,   0.30000  )

     Band symmetry, C_s (m)     point group:

     e(  1 -  1) =     -8.52037  eV     1   --> A'             
     e(  2 -  2) =     -8.47674  eV     1   --> A''            
     e(  3 -  3) =     -8.47361  eV     1   --> A'             
     e(  4 -  4) =     -8.41942  eV     1   --> A''            
     e(  5 -  5) =     -8.41537  eV     1   --> A'             
     e(  6 -  6) =     -5.55271  eV     1   --> A'             
     e(  7 -  7) =      2.53207  eV     1   --> A'             
     e(  8 -  8) =      4.54602  eV     1   --> A'             
     e(  9 -  9) =      5.84372  eV     1   --> A''            
     e( 10 - 10) =      8.52461  eV     1   --> A'             
     e( 11 - 11) =     10.47598  eV     1   --> A'             
     e( 12 - 12) =     10.61729  eV     1   --> A''            
     e( 13 - 13) =     11.74617  eV     1   --> A'             

 **************************************************************************

 **************************************************************************

                    xk=(  -0.28125,   0.00000,   0.28125  )

     Band symmetry, C_s (m)     point group:

     e(  1 -  1) =     -8.51722  eV     1   --> A'             
     e(  2 -  2) =     -8.47775  eV     1   --> A''            
     e(  3 -  3) =     -8.47460  eV     1   --> A'             
     e(  4 -  4) =     -8.41931  eV     1   --> A''            
     e(  5 -  5) =     -8.41554  eV     1   --> A'             
     e(  6 -  6) =     -5.62437  eV     1   --> A'             
     e(  7 -  7) =      2.74350  eV     1   --> A'             
     e(  8 -  8) =      4.70259  eV     1   --> A'             
     e(  9 -  9) =      5.89608  eV     1   --> A''            
     e( 10 - 10) =      8.45510  eV     1   --> A'             
     e( 11 - 11) =     10.38719  eV     1   --> A'             
     e( 12 - 12) =     10.53652  eV     1   --> A''            
     e( 13 - 13) =     11.68340  eV     1   --> A'             

 **************************************************************************

 **************************************************************************

                    xk=(  -0.26250,   0.00000,   0.26250  )

     Band symmetry, C_s (m)     point group:

     e(  1 -  1) =     -8.51407  eV     1   --> A'             
     e(  2 -  2) =     -8.47872  eV     1   --> A''            
     e(  3 -  3) =     -8.47563  eV     1   --> A'             
     e(  4 -  4) =     -8.41917  eV     1   --> A''            
     e(  5 -  5) =     -8.41572  eV     1   --> A'             
     e(  6 -  6) =     -5.69249  eV     1   --> A'             
     e(  7 -  7) =      2.96078  eV     1   --> A'             
     e(  8 -  8) =      4.85859  eV     1   --> A'             
     e(  9 -  9) =      5.94442  eV     1   --> A''            
     e( 10 - 10) =      8.38099  eV     1   --> A'             
     e( 11 - 11) =     10.30647  eV     1   --> A'             
     e( 12 - 12) =     10.46106  eV     1   --> A''            
     e( 13 - 13) =     11.59448  eV     1   --> A'             

 **************************************************************************

 **************************************************************************

                    xk=(  -0.24375,   0.00000,   0.24375  )

     Band symmetry, C_s (m)     point group:

     e(  1 -  1) =     -8.51093  eV     1   --> A'             
     e(  2 -  2) =     -8.47964  eV     1   --> A''            
     e(  3 -  3) =     -8.47667  eV     1   --> A'             
     e(  4 -  4) =     -8.41901  eV     1   --> A''            
     e(  5 -  5) =     -8.41590  eV     1   --> A'             
     e(  6 -  6) =     -5.75684  eV     1   --> A'             
     e(  7 -  7) =      3.18357  eV     1   --> A'             
     e(  8 -  8) =      5.01294  eV     1   --> A'             
     e(  9 -  9) =      5.98871  eV     1   --> A''            
     e( 10 - 10) =      8.30196  eV     1   --> A'             
     e( 11 - 11) =     10.23403  eV     1   --> A'             
     e( 12 - 12) =     10.39089  eV     1   --> A''            
     e( 13 - 13) =     11.47999  eV     1   --> A'             

 **************************************************************************

 **************************************************************************

                    xk=(  -0.22500,   0.00000,   0.22500  )

     Band symmetry, C_s (m)     point group:

     e(  1 -  1) =     -8.50784  eV     1   --> A'             
     e(  2 -  2) =     -8.48051  eV     1   --> A''            
     e(  3 -  3) =     -8.47773  eV     1   --> A'             
     e(  4 -  4) =     -8.41884  eV     1   --> A''            
     e(  5 -  5) =     -8.41608  eV     1   --> A'             
     e(  6 -  6) =     -5.81720  eV     1   --> A'             
     e(  7 -  7) =      3.41150  eV     1   --> A'             
     e(  8 -  8) =      5.16440  eV     1   --> A'             
     e(  9 -  9) =      6.02896  eV     1   --> A''            
     e( 10 - 10) =      8.21737  eV     1   --> A'             
     e( 11 - 11) =     10.17006  eV     1   --> A'             
     e( 12 - 12) =     10.32597  eV     1   --> A''            
     e( 13 - 13) =     11.34307  eV     1   --> A'             

 **************************************************************************

 **************************************************************************

                    xk=(  -0.20625,   0.00000,   0.20625  )

     Band symmetry, C_s (m)     point group:

     e(  1 -  1) =     -8.50483  eV     1   --> A'             
     e(  2 -  2) =     -8.48132  eV     1   --> A''            
     e(  3 -  3) =     -8.47878  eV     1   --> A'             
     e(  4 -  4) =     -8.41866  eV     1   --> A''            
     e(  5 -  5) =     -8.41627  eV     1   --> A'             
     e(  6 -  6) =     -5.87338  eV     1   --> A'             
     e(  7 -  7) =      3.64418  eV     1   --> A'             
     e(  8 -  8) =      5.31167  eV     1   --> A'             
     e(  9 -  9) =      6.06522  eV     1   --> A''            
     e( 10 - 10) =      8.12626  eV     1   --> A'             
     e( 11 - 11) =     10.11469  eV     1   --> A'             
     e( 12 - 12) =     10.26629  eV     1   --> A''            
     e( 13 - 13) =     11.18885  eV     1   --> A'             

 **************************************************************************

 **************************************************************************

                    xk=(  -0.18750,   0.00000,   0.18750  )

     Band symmetry, C_s (m)     point group:

     e(  1 -  1) =     -8.50193  eV     1   --> A'             
     e(  2 -  2) =     -8.48207  eV     1   --> A''            
     e(  3 -  3) =     -8.47981  eV     1   --> A'             
     e(  4 -  4) =     -8.41848  eV     1   --> A''            
     e(  5 -  5) =     -8.41644  eV     1   --> A'             
     e(  6 -  6) =     -5.92521  eV     1   --> A'             
     e(  7 -  7) =      3.88116  eV     1   --> A'             
     e(  8 -  8) =      5.45334  eV     1   --> A'             
     e(  9 -  9) =      6.09760  eV     1   --> A''            
     e( 10 - 10) =      8.02735  eV     1   --> A'             
     e( 11 - 11) =     10.06797  eV     1   --> A'             
     e( 12 - 12) =     10.21183  eV     1   --> A''            
     e( 13 - 13) =     11.02365  eV     1   --> A'             

 **************************************************************************

 **************************************************************************

                    xk=(  -0.16875,   0.00000,   0.16875  )

     Band symmetry, C_s (m)     point group:

     e(  1 -  1) =     -8.49917  eV     1   --> A'             
     e(  2 -  2) =     -8.48276  eV     1   --> A''            
     e(  3 -  3) =     -8.48081  eV     1   --> A'             
     e(  4 -  4) =     -8.41829  eV     1   --> A''            
     e(  5 -  5) =     -8.41660  eV     1   --> A'             
     e(  6 -  6) =     -5.97255  eV     1   --> A'             
     e(  7 -  7) =      4.12192  eV     1   --> A'             
     e(  8 -  8) =      5.58789  eV     1   --> A'             
     e(  9 -  9) =      6.12621  eV     1   --> A''            
     e( 10 - 10) =      7.91911  eV     1   --> A'             
     e( 11 - 11) =     10.02984  eV     1   --> A'             
     e( 12 - 12) =     10.16258  eV     1   --> A''            
     e( 13 - 13) =     10.85417  eV     1   --> A'             

 **************************************************************************

 **************************************************************************

                    xk=(  -0.15000,   0.00000,   0.15000  )

     Band symmetry, C_s (m)     point group:

     e(  1 -  1) =     -8.49660  eV     1   --> A'             
     e(  2 -  2) =     -8.48338  eV     1   --> A''            
     e(  3 -  3) =     -8.48175  eV     1   --> A'             
     e(  4 -  4) =     -8.41812  eV     1   --> A''            
     e(  5 -  5) =     -8.41675  eV     1   --> A'             
     e(  6 -  6) =     -6.01526  eV     1   --> A'             
     e(  7 -  7) =      4.36591  eV     1   --> A'             
     e(  8 -  8) =      5.71378  eV     1   --> A'             
     e(  9 -  9) =      6.15121  eV     1   --> A''            
     e( 10 - 10) =      7.79983  eV     1   --> A'             
     e( 11 - 11) =     10.00005  eV     1   --> A'             
     e( 12 - 12) =     10.11853  eV     1   --> A''            
     e( 13 - 13) =     10.68697  eV     1   --> A'             

 **************************************************************************

 **************************************************************************

                    xk=(  -0.13125,   0.00000,   0.13125  )

     Band symmetry, C_s (m)     point group:

     e(  1 -  1) =     -8.49423  eV     1   --> A'             
     e(  2 -  2) =     -8.48394  eV     1   --> A''            
     e(  3 -  3) =     -8.48263  eV     1   --> A'             
     e(  4 -  4) =     -8.41795  eV     1   --> A''            
     e(  5 -  5) =     -8.41688  eV     1   --> A'             
     e(  6 -  6) =     -6.05322  eV     1   --> A'             
     e(  7 -  7) =      4.61244  eV     1   --> A'             
     e(  8 -  8) =      5.82943  eV     1   --> A'             
     e(  9 -  9) =      6.17275  eV     1   --> A''            
     e( 10 - 10) =      7.66784  eV     1   --> A'             
     e( 11 - 11) =      9.97814  eV     1   --> A'             
     e( 12 - 12) =     10.07967  eV     1   --> A''            
     e( 13 - 13) =     10.52804  eV     1   --> A'             

 **************************************************************************

 **************************************************************************

                    xk=(  -0.11250,   0.00000,   0.11250  )

     Band symmetry, C_s (m)     point group:

     e(  1 -  1) =     -8.49210  eV     1   --> A'             
     e(  2 -  2) =     -8.48443  eV     1   --> A''            
     e(  3 -  3) =     -8.48343  eV     1   --> A'             
     e(  4 -  4) =     -8.41780  eV     1   --> A''            
     e(  5 -  5) =     -8.41700  eV     1   --> A'             
     e(  6 -  6) =     -6.08633  eV     1   --> A'             
     e(  7 -  7) =      4.86074  eV     1   --> A'             
     e(  8 -  8) =      5.93328  eV     1   --> A'             
     e(  9 -  9) =      6.19101  eV     1   --> A''            
     e( 10 - 10) =      7.52174  eV     1   --> A'             
     e( 11 - 11) =      9.96336  eV     1   --> A'             
     e( 12 - 12) =     10.04599  eV     1   --> A''            
     e( 13 - 13) =     10.38253  eV     1   --> A'             

 **************************************************************************

 **************************************************************************

                    xk=(  -0.09375,   0.00000,   0.09375  )

     Band symmetry, C_s (m)     point group:

     e(  1 -  1) =     -8.49024  eV     1   --> A'             
     e(  2 -  2) =     -8.48485  eV     1   --> A''            
     e(  3 -  3) =     -8.48413  eV     1   --> A'             
     e(  4 -  4) =     -8.41767  eV     1   --> A''            
     e(  5 -  5) =     -8.41710  eV     1   --> A'             
     e(  6 -  6) =     -6.11449  eV     1   --> A'             
     e(  7 -  7) =      5.10986  eV     1   --> A'             
     e(  8 -  8) =      6.02388  eV     1   --> A'             
     e(  9 -  9) =      6.20614  eV     1   --> A''            
     e( 10 - 10) =      7.36066  eV     1   --> A'             
     e( 11 - 11) =      9.95468  eV     1   --> A'             
     e( 12 - 12) =     10.01750  eV     1   --> A''            
     e( 13 - 13) =     10.25460  eV     1   --> A'             

 **************************************************************************

 **************************************************************************

                    xk=(  -0.07500,   0.00000,   0.07500  )

     Band symmetry, C_s (m)     point group:

     e(  1 -  1) =     -8.48868  eV     1   --> A'             
     e(  2 -  2) =     -8.48519  eV     1   --> A''            
     e(  3 -  3) =     -8.48472  eV     1   --> A'             
     e(  4 -  4) =     -8.41755  eV     1   --> A''            
     e(  5 -  5) =     -8.41719  eV     1   --> A'             
     e(  6 -  6) =     -6.13763  eV     1   --> A'             
     e(  7 -  7) =      5.35865  eV     1   --> A'             
     e(  8 -  8) =      6.09991  eV     1   --> A'             
     e(  9 -  9) =      6.21829  eV     1   --> A''            
     e( 10 - 10) =      7.18447  eV     1   --> A'             
     e( 11 - 11) =      9.95075  eV     1   --> A'             
     e( 12 - 12) =      9.99419  eV     1   --> A''            
     e( 13 - 13) =     10.14729  eV     1   --> A'             

 **************************************************************************

 **************************************************************************

                    xk=(  -0.05625,   0.00000,   0.05625  )

     Band symmetry, C_s (m)     point group:

     e(  1 -  1) =     -8.48744  eV     1   --> A'             
     e(  2 -  2) =     -8.48546  eV     1   --> A''            
     e(  3 -  3) =     -8.48519  eV     1   --> A'             
     e(  4 -  4) =     -8.41746  eV     1   --> A''            
     e(  5 -  5) =     -8.41725  eV     1   --> A'             
     e(  6 -  6) =     -6.15570  eV     1   --> A'             
     e(  7 -  7) =      5.60559  eV     1   --> A'             
     e(  8 -  8) =      6.16024  eV     1   --> A'             
     e(  9 -  9) =      6.22760  eV     1   --> A''            
     e( 10 - 10) =      6.99403  eV     1   --> A'             
     e( 11 - 11) =      9.95005  eV     1   --> A'             
     e( 12 - 12) =      9.97606  eV     1   --> A''            
     e( 13 - 13) =     10.06260  eV     1   --> A'             

 **************************************************************************

 **************************************************************************

                    xk=(  -0.03750,   0.00000,   0.03750  )

     Band symmetry, C_s (m)     point group:

     e(  1 -  1) =     -8.48654  eV     1   --> A'             
     e(  2 -  2) =     -8.48565  eV     1   --> A''            
     e(  3 -  3) =     -8.48553  eV     1   --> A'             
     e(  4 -  5) =     -8.41739  eV     2   --> A'             
     e(  4 -  5) =     -8.41739  eV     2   --> A''            
     e(  6 -  6) =     -6.16864  eV     1   --> A'             
     e(  7 -  7) =      5.84832  eV     1   --> A'             
     e(  8 -  8) =      6.20398  eV     1   --> A'             
     e(  9 -  9) =      6.23416  eV     1   --> A''            
     e( 10 - 10) =      6.79148  eV     1   --> A'             
     e( 11 - 11) =      9.95100  eV     1   --> A'             
     e( 12 - 12) =      9.96311  eV     1   --> A''            
     e( 13 - 13) =     10.00166  eV     1   --> A'             

 **************************************************************************

 **************************************************************************

                    xk=(  -0.01875,   0.00000,   0.01875  )

     Band symmetry, C_s (m)     point group:

     e(  1 -  1) =     -8.48599  eV     1   --> A'             
     e(  2 -  3) =     -8.48576  eV     2   --> A'             
     e(  2 -  3) =     -8.48576  eV     2   --> A''            
     e(  4 -  5) =     -8.41735  eV     2   --> A'             
     e(  4 -  5) =     -8.41735  eV     2   --> A''            
     e(  6 -  6) =     -6.17641  eV     1   --> A'             
     e(  7 -  7) =      6.08080  eV     1   --> A'             
     e(  8 -  8) =      6.23049  eV     1   --> A'             
     e(  9 -  9) =      6.23807  eV     1   --> A''            
     e( 10 - 10) =      6.58299  eV     1   --> A'             
     e( 11 - 11) =      9.95222  eV     1   --> A'             
     e( 12 - 12) =      9.95534  eV     1   --> A''            
     e( 13 - 13) =      9.96498  eV     1   --> A'             

 **************************************************************************

 **************************************************************************

                    xk=(   0.00000,   0.00000,   0.00000  )

     point group T_d (-43m) 
     there are  5 classes
     the character table:

       E     8C3   3C2   6S4   6s_d 
A_1    1.00  1.00  1.00  1.00  1.00
A_2    1.00  1.00  1.00 -1.00 -1.00
E      2.00 -1.00  2.00  0.00  0.00
T_1    3.00  0.00 -1.00  1.00 -1.00
T_2    3.00  0.00 -1.00 -1.00  1.00

     the symmetry operations in each class and the name of the first element:

     E        1
                                                                 
     8C3      5    7    8    6   12    9   10   11
                                                                 
     3C2      2    3    4
                                                                 
     6S4     15   16   20   19   23   24
                                                                 
     6s_d    13   14   17   18   21   22
                                                                 

     Band symmetry, T_d (-43m)  point group:

     e(  1 -  3) =     -8.48580  eV     3   --> T_2  G_15 P_4  
     e(  4 -  5) =     -8.41732  eV     2   --> E    G_12 P_3  
     e(  6 -  6) =     -6.17900  eV     1   --> A_1  G_1  P_1  
     e(  7 -  9) =      6.23937  eV     3   --> T_2  G_15 P_4  
     e( 10 - 10) =      6.43240  eV     1   --> A_1  G_1  P_1  
     e( 11 - 13) =      9.95275  eV     3   --> T_2  G_15 P_4  

 **************************************************************************

     BANDS        :     32.00s CPU     40.58s WALL


   This run was terminated on:  11:50:32  11Jun2024            

=------------------------------------------------------------------------------=
   JOB DONE.
=------------------------------------------------------------------------------=
