
     Program PWSCF v.7.2 starts on 11Jun2024 at 12: 4:36 

     This program is part of the open-source Quantum ESPRESSO suite
     for quantum simulation of materials; please cite
         "P. Giannozzi et al., J. Phys.:Condens. Matter 21 395502 (2009);
         "P. Giannozzi et al., J. Phys.:Condens. Matter 29 465901 (2017);
         "P. Giannozzi et al., J. Chem. Phys. 152 154105 (2020);
          URL http://www.quantum-espresso.org", 
     in publications or presentations arising from this work. More details at
     http://www.quantum-espresso.org/quote

     Serial version
     8844 MiB available memory on the printing compute node when the environment starts

     Waiting for input...
     Reading input from standard input

     Current dimensions of program PWSCF are:
     Max number of different atomic species (ntypx) = 10
     Max number of k-points (npk) =  40000
     Max angular momentum in pseudopotentials (lmaxx) =  4

     Atomic positions and unit cell read from directory:
     ./SCRATCH/gallium_arsenide.save/

     file Ga.pbe-dn-rrkjus_psl.0.2.UPF: wavefunction(s)  4S 3D renormalized


     G-vector sticks info
     --------------------
     sticks:   dense  smooth     PW     G-vecs:    dense   smooth      PW
     Sum         703     511    163                12387     7799    1363

     Using Slab Decomposition



     bravais-lattice index     =            2
     lattice parameter (alat)  =      10.6827  a.u.
     unit-cell volume          =     304.7776 (a.u.)^3
     number of atoms/cell      =            2
     number of atomic types    =            2
     number of electrons       =        18.00
     number of Kohn-Sham states=           13
     kinetic-energy cutoff     =      33.0000  Ry
     charge density cutoff     =     180.0000  Ry
     Exchange-correlation= PBE
                           (   1   4   3   4   0   0   0)

     celldm(1)=  10.682700  celldm(2)=   0.000000  celldm(3)=   0.000000
     celldm(4)=   0.000000  celldm(5)=   0.000000  celldm(6)=   0.000000

     crystal axes: (cart. coord. in units of alat)
               a(1) = (  -0.500000   0.000000   0.500000 )  
               a(2) = (   0.000000   0.500000   0.500000 )  
               a(3) = (  -0.500000   0.500000   0.000000 )  

     reciprocal axes: (cart. coord. in units 2 pi/alat)
               b(1) = ( -1.000000 -1.000000  1.000000 )  
               b(2) = (  1.000000  1.000000  1.000000 )  
               b(3) = ( -1.000000  1.000000 -1.000000 )  


     PseudoPot. # 1 for Ga read from file:
     /home/paolo/project_labqsm/pseudopotentials/Ga.pbe-dn-rrkjus_psl.0.2.UPF
     MD5 check sum: ffdfce4fe0c152725d7fa40f12f9e9e5
     Pseudo is Ultrasoft + core correction, Zval = 13.0
     Generated using "atomic" code by A. Dal Corso  v.5.0.2 svn rev. 9415
     Using radial grid of 1205 points,  6 beta functions with: 
                l(1) =   0
                l(2) =   0
                l(3) =   1
                l(4) =   1
                l(5) =   2
                l(6) =   2
     Q(r) pseudized with 0 coefficients 


     PseudoPot. # 2 for As read from file:
     /home/paolo/project_labqsm/pseudopotentials/As.pbe-n-rrkjus_psl.0.2.UPF
     MD5 check sum: f98050c7212d27f7cb33035312670de9
     Pseudo is Ultrasoft + core correction, Zval =  5.0
     Generated using "atomic" code by A. Dal Corso  v.5.0.2 svn rev. 9415
     Using radial grid of 1209 points,  4 beta functions with: 
                l(1) =   0
                l(2) =   0
                l(3) =   1
                l(4) =   1
     Q(r) pseudized with 0 coefficients 


     atomic species   valence    mass     pseudopotential
        Ga            13.00    69.72300     Ga( 1.00)
        As             5.00    74.92160     As( 1.00)

     24 Sym. Ops. (no inversion) found


                                    s                        frac. trans.

      isym =  1     identity                                     

 cryst.   s( 1) = (     1          0          0      )
                  (     0          1          0      )
                  (     0          0          1      )

 cart.    s( 1) = (  1.0000000  0.0000000  0.0000000 )
                  (  0.0000000  1.0000000  0.0000000 )
                  (  0.0000000  0.0000000  1.0000000 )


      isym =  2     180 deg rotation - cart. axis [0,0,1]        

 cryst.   s( 2) = (     0          1         -1      )
                  (     1          0         -1      )
                  (     0          0         -1      )

 cart.    s( 2) = ( -1.0000000  0.0000000  0.0000000 )
                  (  0.0000000 -1.0000000  0.0000000 )
                  (  0.0000000  0.0000000  1.0000000 )


      isym =  3     180 deg rotation - cart. axis [0,1,0]        

 cryst.   s( 3) = (    -1          0          0      )
                  (    -1          0          1      )
                  (    -1          1          0      )

 cart.    s( 3) = ( -1.0000000  0.0000000  0.0000000 )
                  (  0.0000000  1.0000000  0.0000000 )
                  (  0.0000000  0.0000000 -1.0000000 )


      isym =  4     180 deg rotation - cart. axis [1,0,0]        

 cryst.   s( 4) = (     0         -1          1      )
                  (     0         -1          0      )
                  (     1         -1          0      )

 cart.    s( 4) = (  1.0000000  0.0000000  0.0000000 )
                  (  0.0000000 -1.0000000  0.0000000 )
                  (  0.0000000  0.0000000 -1.0000000 )


      isym =  5     120 deg rotation - cart. axis [-1,-1,-1]     

 cryst.   s( 5) = (    -1          0          1      )
                  (    -1          1          0      )
                  (    -1          0          0      )

 cart.    s( 5) = (  0.0000000  1.0000000  0.0000000 )
                  (  0.0000000  0.0000000  1.0000000 )
                  (  1.0000000  0.0000000  0.0000000 )


      isym =  6     120 deg rotation - cart. axis [-1,1,1]       

 cryst.   s( 6) = (     0          1          0      )
                  (     0          0          1      )
                  (     1          0          0      )

 cart.    s( 6) = (  0.0000000 -1.0000000  0.0000000 )
                  (  0.0000000  0.0000000  1.0000000 )
                  ( -1.0000000  0.0000000  0.0000000 )


      isym =  7     120 deg rotation - cart. axis [1,1,-1]       

 cryst.   s( 7) = (     1          0         -1      )
                  (     0          0         -1      )
                  (     0          1         -1      )

 cart.    s( 7) = (  0.0000000  1.0000000  0.0000000 )
                  (  0.0000000  0.0000000 -1.0000000 )
                  ( -1.0000000  0.0000000  0.0000000 )


      isym =  8     120 deg rotation - cart. axis [1,-1,1]       

 cryst.   s( 8) = (     0         -1          0      )
                  (     1         -1          0      )
                  (     0         -1          1      )

 cart.    s( 8) = (  0.0000000 -1.0000000  0.0000000 )
                  (  0.0000000  0.0000000 -1.0000000 )
                  (  1.0000000  0.0000000  0.0000000 )


      isym =  9     120 deg rotation - cart. axis [1,1,1]        

 cryst.   s( 9) = (     0          0         -1      )
                  (     0          1         -1      )
                  (     1          0         -1      )

 cart.    s( 9) = (  0.0000000  0.0000000  1.0000000 )
                  (  1.0000000  0.0000000  0.0000000 )
                  (  0.0000000  1.0000000  0.0000000 )


      isym = 10     120 deg rotation - cart. axis [-1,1,-1]      

 cryst.   s(10) = (    -1          1          0      )
                  (    -1          0          0      )
                  (    -1          0          1      )

 cart.    s(10) = (  0.0000000  0.0000000  1.0000000 )
                  ( -1.0000000  0.0000000  0.0000000 )
                  (  0.0000000 -1.0000000  0.0000000 )


      isym = 11     120 deg rotation - cart. axis [1,-1,-1]      

 cryst.   s(11) = (     0          0          1      )
                  (     1          0          0      )
                  (     0          1          0      )

 cart.    s(11) = (  0.0000000  0.0000000 -1.0000000 )
                  ( -1.0000000  0.0000000  0.0000000 )
                  (  0.0000000  1.0000000  0.0000000 )


      isym = 12     120 deg rotation - cart. axis [-1,-1,1]      

 cryst.   s(12) = (     1         -1          0      )
                  (     0         -1          1      )
                  (     0         -1          0      )

 cart.    s(12) = (  0.0000000  0.0000000 -1.0000000 )
                  (  1.0000000  0.0000000  0.0000000 )
                  (  0.0000000 -1.0000000  0.0000000 )


      isym = 13     inv. 180 deg rotation - cart. axis [1,1,0]   

 cryst.   s(13) = (     0          1          0      )
                  (     1          0          0      )
                  (     0          0          1      )

 cart.    s(13) = (  0.0000000 -1.0000000  0.0000000 )
                  ( -1.0000000  0.0000000  0.0000000 )
                  (  0.0000000  0.0000000  1.0000000 )


      isym = 14     inv. 180 deg rotation - cart. axis [1,-1,0]  

 cryst.   s(14) = (     1          0         -1      )
                  (     0          1         -1      )
                  (     0          0         -1      )

 cart.    s(14) = (  0.0000000  1.0000000  0.0000000 )
                  (  1.0000000  0.0000000  0.0000000 )
                  (  0.0000000  0.0000000  1.0000000 )


      isym = 15     inv.  90 deg rotation - cart. axis [0,0,-1]  

 cryst.   s(15) = (     0         -1          0      )
                  (     0         -1          1      )
                  (     1         -1          0      )

 cart.    s(15) = (  0.0000000 -1.0000000  0.0000000 )
                  (  1.0000000  0.0000000  0.0000000 )
                  (  0.0000000  0.0000000 -1.0000000 )


      isym = 16     inv.  90 deg rotation - cart. axis [0,0,1]   

 cryst.   s(16) = (    -1          0          1      )
                  (    -1          0          0      )
                  (    -1          1          0      )

 cart.    s(16) = (  0.0000000  1.0000000  0.0000000 )
                  ( -1.0000000  0.0000000  0.0000000 )
                  (  0.0000000  0.0000000 -1.0000000 )


      isym = 17     inv. 180 deg rotation - cart. axis [1,0,1]   

 cryst.   s(17) = (     1          0          0      )
                  (     0          0          1      )
                  (     0          1          0      )

 cart.    s(17) = (  0.0000000  0.0000000 -1.0000000 )
                  (  0.0000000  1.0000000  0.0000000 )
                  ( -1.0000000  0.0000000  0.0000000 )


      isym = 18     inv. 180 deg rotation - cart. axis [-1,0,1]  

 cryst.   s(18) = (    -1          0          0      )
                  (    -1          1          0      )
                  (    -1          0          1      )

 cart.    s(18) = (  0.0000000  0.0000000  1.0000000 )
                  (  0.0000000  1.0000000  0.0000000 )
                  (  1.0000000  0.0000000  0.0000000 )


      isym = 19     inv.  90 deg rotation - cart. axis [0,1,0]   

 cryst.   s(19) = (     0         -1          1      )
                  (     1         -1          0      )
                  (     0         -1          0      )

 cart.    s(19) = (  0.0000000  0.0000000 -1.0000000 )
                  (  0.0000000 -1.0000000  0.0000000 )
                  (  1.0000000  0.0000000  0.0000000 )


      isym = 20     inv.  90 deg rotation - cart. axis [0,-1,0]  

 cryst.   s(20) = (     0          1         -1      )
                  (     0          0         -1      )
                  (     1          0         -1      )

 cart.    s(20) = (  0.0000000  0.0000000  1.0000000 )
                  (  0.0000000 -1.0000000  0.0000000 )
                  ( -1.0000000  0.0000000  0.0000000 )


      isym = 21     inv. 180 deg rotation - cart. axis [0,1,1]   

 cryst.   s(21) = (     1         -1          0      )
                  (     0         -1          0      )
                  (     0         -1          1      )

 cart.    s(21) = (  1.0000000  0.0000000  0.0000000 )
                  (  0.0000000  0.0000000 -1.0000000 )
                  (  0.0000000 -1.0000000  0.0000000 )


      isym = 22     inv. 180 deg rotation - cart. axis [0,1,-1]  

 cryst.   s(22) = (     0          0          1      )
                  (     0          1          0      )
                  (     1          0          0      )

 cart.    s(22) = (  1.0000000  0.0000000  0.0000000 )
                  (  0.0000000  0.0000000  1.0000000 )
                  (  0.0000000  1.0000000  0.0000000 )


      isym = 23     inv.  90 deg rotation - cart. axis [-1,0,0]  

 cryst.   s(23) = (     0          0         -1      )
                  (     1          0         -1      )
                  (     0          1         -1      )

 cart.    s(23) = ( -1.0000000  0.0000000  0.0000000 )
                  (  0.0000000  0.0000000 -1.0000000 )
                  (  0.0000000  1.0000000  0.0000000 )


      isym = 24     inv.  90 deg rotation - cart. axis [1,0,0]   

 cryst.   s(24) = (    -1          1          0      )
                  (    -1          0          1      )
                  (    -1          0          0      )

 cart.    s(24) = ( -1.0000000  0.0000000  0.0000000 )
                  (  0.0000000  0.0000000  1.0000000 )
                  (  0.0000000 -1.0000000  0.0000000 )


     point group T_d (-43m) 
     there are  5 classes
     the character table:

       E     8C3   3C2   6S4   6s_d 
A_1    1.00  1.00  1.00  1.00  1.00
A_2    1.00  1.00  1.00 -1.00 -1.00
E      2.00 -1.00  2.00  0.00  0.00
T_1    3.00  0.00 -1.00  1.00 -1.00
T_2    3.00  0.00 -1.00 -1.00  1.00

     the symmetry operations in each class and the name of the first element:

     E        1
          identity                                               
     8C3      5    7    8    6   12    9   10   11
          120 deg rotation - cart. axis [-1,-1,-1]               
     3C2      2    3    4
          180 deg rotation - cart. axis [0,0,1]                  
     6S4     15   16   20   19   23   24
          inv.  90 deg rotation - cart. axis [0,0,-1]            
     6s_d    13   14   17   18   21   22
          inv. 180 deg rotation - cart. axis [1,1,0]             

   Cartesian axes

     site n.     atom                  positions (alat units)
         1           Ga  tau(   1) = (   0.0000000   0.0000000   0.0000000  )
         2           As  tau(   2) = (   0.2500000   0.2500000   0.2500000  )

   Crystallographic axes

     site n.     atom                  positions (cryst. coord.)
         1           Ga  tau(   1) = (  0.0000000  0.0000000  0.0000000  )
         2           As  tau(   2) = ( -0.2500000  0.7500000 -0.2500000  )

     number of k points=   201
                       cart. coord. in units 2pi/alat
        k(    1) = (   0.0000000   0.0000000   1.0000000), wk =   0.0099502
        k(    2) = (   0.0000000   0.0000000   0.9750000), wk =   0.0099502
        k(    3) = (   0.0000000   0.0000000   0.9500000), wk =   0.0099502
        k(    4) = (   0.0000000   0.0000000   0.9250000), wk =   0.0099502
        k(    5) = (   0.0000000   0.0000000   0.9000000), wk =   0.0099502
        k(    6) = (   0.0000000   0.0000000   0.8750000), wk =   0.0099502
        k(    7) = (   0.0000000   0.0000000   0.8500000), wk =   0.0099502
        k(    8) = (   0.0000000   0.0000000   0.8250000), wk =   0.0099502
        k(    9) = (   0.0000000   0.0000000   0.8000000), wk =   0.0099502
        k(   10) = (   0.0000000   0.0000000   0.7750000), wk =   0.0099502
        k(   11) = (   0.0000000   0.0000000   0.7500000), wk =   0.0099502
        k(   12) = (   0.0000000   0.0000000   0.7250000), wk =   0.0099502
        k(   13) = (   0.0000000   0.0000000   0.7000000), wk =   0.0099502
        k(   14) = (   0.0000000   0.0000000   0.6750000), wk =   0.0099502
        k(   15) = (   0.0000000   0.0000000   0.6500000), wk =   0.0099502
        k(   16) = (   0.0000000   0.0000000   0.6250000), wk =   0.0099502
        k(   17) = (   0.0000000   0.0000000   0.6000000), wk =   0.0099502
        k(   18) = (   0.0000000   0.0000000   0.5750000), wk =   0.0099502
        k(   19) = (   0.0000000   0.0000000   0.5500000), wk =   0.0099502
        k(   20) = (   0.0000000   0.0000000   0.5250000), wk =   0.0099502
        k(   21) = (   0.0000000   0.0000000   0.5000000), wk =   0.0099502
        k(   22) = (   0.0000000   0.0000000   0.4750000), wk =   0.0099502
        k(   23) = (   0.0000000   0.0000000   0.4500000), wk =   0.0099502
        k(   24) = (   0.0000000   0.0000000   0.4250000), wk =   0.0099502
        k(   25) = (   0.0000000   0.0000000   0.4000000), wk =   0.0099502
        k(   26) = (   0.0000000   0.0000000   0.3750000), wk =   0.0099502
        k(   27) = (   0.0000000   0.0000000   0.3500000), wk =   0.0099502
        k(   28) = (   0.0000000   0.0000000   0.3250000), wk =   0.0099502
        k(   29) = (   0.0000000   0.0000000   0.3000000), wk =   0.0099502
        k(   30) = (   0.0000000   0.0000000   0.2750000), wk =   0.0099502
        k(   31) = (   0.0000000   0.0000000   0.2500000), wk =   0.0099502
        k(   32) = (   0.0000000   0.0000000   0.2250000), wk =   0.0099502
        k(   33) = (   0.0000000   0.0000000   0.2000000), wk =   0.0099502
        k(   34) = (   0.0000000   0.0000000   0.1750000), wk =   0.0099502
        k(   35) = (   0.0000000   0.0000000   0.1500000), wk =   0.0099502
        k(   36) = (   0.0000000   0.0000000   0.1250000), wk =   0.0099502
        k(   37) = (   0.0000000   0.0000000   0.1000000), wk =   0.0099502
        k(   38) = (   0.0000000   0.0000000   0.0750000), wk =   0.0099502
        k(   39) = (   0.0000000   0.0000000   0.0500000), wk =   0.0099502
        k(   40) = (   0.0000000   0.0000000   0.0250000), wk =   0.0099502
        k(   41) = (   0.0000000   0.0000000   0.0000000), wk =   0.0099502
        k(   42) = (  -0.0125000   0.0125000   0.0125000), wk =   0.0099502
        k(   43) = (  -0.0250000   0.0250000   0.0250000), wk =   0.0099502
        k(   44) = (  -0.0375000   0.0375000   0.0375000), wk =   0.0099502
        k(   45) = (  -0.0500000   0.0500000   0.0500000), wk =   0.0099502
        k(   46) = (  -0.0625000   0.0625000   0.0625000), wk =   0.0099502
        k(   47) = (  -0.0750000   0.0750000   0.0750000), wk =   0.0099502
        k(   48) = (  -0.0875000   0.0875000   0.0875000), wk =   0.0099502
        k(   49) = (  -0.1000000   0.1000000   0.1000000), wk =   0.0099502
        k(   50) = (  -0.1125000   0.1125000   0.1125000), wk =   0.0099502
        k(   51) = (  -0.1250000   0.1250000   0.1250000), wk =   0.0099502
        k(   52) = (  -0.1375000   0.1375000   0.1375000), wk =   0.0099502
        k(   53) = (  -0.1500000   0.1500000   0.1500000), wk =   0.0099502
        k(   54) = (  -0.1625000   0.1625000   0.1625000), wk =   0.0099502
        k(   55) = (  -0.1750000   0.1750000   0.1750000), wk =   0.0099502
        k(   56) = (  -0.1875000   0.1875000   0.1875000), wk =   0.0099502
        k(   57) = (  -0.2000000   0.2000000   0.2000000), wk =   0.0099502
        k(   58) = (  -0.2125000   0.2125000   0.2125000), wk =   0.0099502
        k(   59) = (  -0.2250000   0.2250000   0.2250000), wk =   0.0099502
        k(   60) = (  -0.2375000   0.2375000   0.2375000), wk =   0.0099502
        k(   61) = (  -0.2500000   0.2500000   0.2500000), wk =   0.0099502
        k(   62) = (  -0.2625000   0.2625000   0.2625000), wk =   0.0099502
        k(   63) = (  -0.2750000   0.2750000   0.2750000), wk =   0.0099502
        k(   64) = (  -0.2875000   0.2875000   0.2875000), wk =   0.0099502
        k(   65) = (  -0.3000000   0.3000000   0.3000000), wk =   0.0099502
        k(   66) = (  -0.3125000   0.3125000   0.3125000), wk =   0.0099502
        k(   67) = (  -0.3250000   0.3250000   0.3250000), wk =   0.0099502
        k(   68) = (  -0.3375000   0.3375000   0.3375000), wk =   0.0099502
        k(   69) = (  -0.3500000   0.3500000   0.3500000), wk =   0.0099502
        k(   70) = (  -0.3625000   0.3625000   0.3625000), wk =   0.0099502
        k(   71) = (  -0.3750000   0.3750000   0.3750000), wk =   0.0099502
        k(   72) = (  -0.3875000   0.3875000   0.3875000), wk =   0.0099502
        k(   73) = (  -0.4000000   0.4000000   0.4000000), wk =   0.0099502
        k(   74) = (  -0.4125000   0.4125000   0.4125000), wk =   0.0099502
        k(   75) = (  -0.4250000   0.4250000   0.4250000), wk =   0.0099502
        k(   76) = (  -0.4375000   0.4375000   0.4375000), wk =   0.0099502
        k(   77) = (  -0.4500000   0.4500000   0.4500000), wk =   0.0099502
        k(   78) = (  -0.4625000   0.4625000   0.4625000), wk =   0.0099502
        k(   79) = (  -0.4750000   0.4750000   0.4750000), wk =   0.0099502
        k(   80) = (  -0.4875000   0.4875000   0.4875000), wk =   0.0099502
        k(   81) = (  -0.5000000   0.5000000   0.5000000), wk =   0.0099502
        k(   82) = (  -0.5000000   0.4875000   0.5125000), wk =   0.0099502
        k(   83) = (  -0.5000000   0.4750000   0.5250000), wk =   0.0099502
        k(   84) = (  -0.5000000   0.4625000   0.5375000), wk =   0.0099502
        k(   85) = (  -0.5000000   0.4500000   0.5500000), wk =   0.0099502
        k(   86) = (  -0.5000000   0.4375000   0.5625000), wk =   0.0099502
        k(   87) = (  -0.5000000   0.4250000   0.5750000), wk =   0.0099502
        k(   88) = (  -0.5000000   0.4125000   0.5875000), wk =   0.0099502
        k(   89) = (  -0.5000000   0.4000000   0.6000000), wk =   0.0099502
        k(   90) = (  -0.5000000   0.3875000   0.6125000), wk =   0.0099502
        k(   91) = (  -0.5000000   0.3750000   0.6250000), wk =   0.0099502
        k(   92) = (  -0.5000000   0.3625000   0.6375000), wk =   0.0099502
        k(   93) = (  -0.5000000   0.3500000   0.6500000), wk =   0.0099502
        k(   94) = (  -0.5000000   0.3375000   0.6625000), wk =   0.0099502
        k(   95) = (  -0.5000000   0.3250000   0.6750000), wk =   0.0099502
        k(   96) = (  -0.5000000   0.3125000   0.6875000), wk =   0.0099502
        k(   97) = (  -0.5000000   0.3000000   0.7000000), wk =   0.0099502
        k(   98) = (  -0.5000000   0.2875000   0.7125000), wk =   0.0099502
        k(   99) = (  -0.5000000   0.2750000   0.7250000), wk =   0.0099502
        k(  100) = (  -0.5000000   0.2625000   0.7375000), wk =   0.0099502
        k(  101) = (  -0.5000000   0.2500000   0.7500000), wk =   0.0099502
        k(  102) = (  -0.5000000   0.2375000   0.7625000), wk =   0.0099502
        k(  103) = (  -0.5000000   0.2250000   0.7750000), wk =   0.0099502
        k(  104) = (  -0.5000000   0.2125000   0.7875000), wk =   0.0099502
        k(  105) = (  -0.5000000   0.2000000   0.8000000), wk =   0.0099502
        k(  106) = (  -0.5000000   0.1875000   0.8125000), wk =   0.0099502
        k(  107) = (  -0.5000000   0.1750000   0.8250000), wk =   0.0099502
        k(  108) = (  -0.5000000   0.1625000   0.8375000), wk =   0.0099502
        k(  109) = (  -0.5000000   0.1500000   0.8500000), wk =   0.0099502
        k(  110) = (  -0.5000000   0.1375000   0.8625000), wk =   0.0099502
        k(  111) = (  -0.5000000   0.1250000   0.8750000), wk =   0.0099502
        k(  112) = (  -0.5000000   0.1125000   0.8875000), wk =   0.0099502
        k(  113) = (  -0.5000000   0.1000000   0.9000000), wk =   0.0099502
        k(  114) = (  -0.5000000   0.0875000   0.9125000), wk =   0.0099502
        k(  115) = (  -0.5000000   0.0750000   0.9250000), wk =   0.0099502
        k(  116) = (  -0.5000000   0.0625000   0.9375000), wk =   0.0099502
        k(  117) = (  -0.5000000   0.0500000   0.9500000), wk =   0.0099502
        k(  118) = (  -0.5000000   0.0375000   0.9625000), wk =   0.0099502
        k(  119) = (  -0.5000000   0.0250000   0.9750000), wk =   0.0099502
        k(  120) = (  -0.5000000   0.0125000   0.9875000), wk =   0.0099502
        k(  121) = (  -0.5000000   0.0000000   1.0000000), wk =   0.0099502
        k(  122) = (  -0.5062500   0.0000000   0.9937500), wk =   0.0099502
        k(  123) = (  -0.5125000   0.0000000   0.9875000), wk =   0.0099502
        k(  124) = (  -0.5187500   0.0000000   0.9812500), wk =   0.0099502
        k(  125) = (  -0.5250000   0.0000000   0.9750000), wk =   0.0099502
        k(  126) = (  -0.5312500   0.0000000   0.9687500), wk =   0.0099502
        k(  127) = (  -0.5375000   0.0000000   0.9625000), wk =   0.0099502
        k(  128) = (  -0.5437500   0.0000000   0.9562500), wk =   0.0099502
        k(  129) = (  -0.5500000   0.0000000   0.9500000), wk =   0.0099502
        k(  130) = (  -0.5562500   0.0000000   0.9437500), wk =   0.0099502
        k(  131) = (  -0.5625000   0.0000000   0.9375000), wk =   0.0099502
        k(  132) = (  -0.5687500   0.0000000   0.9312500), wk =   0.0099502
        k(  133) = (  -0.5750000   0.0000000   0.9250000), wk =   0.0099502
        k(  134) = (  -0.5812500   0.0000000   0.9187500), wk =   0.0099502
        k(  135) = (  -0.5875000   0.0000000   0.9125000), wk =   0.0099502
        k(  136) = (  -0.5937500   0.0000000   0.9062500), wk =   0.0099502
        k(  137) = (  -0.6000000   0.0000000   0.9000000), wk =   0.0099502
        k(  138) = (  -0.6062500   0.0000000   0.8937500), wk =   0.0099502
        k(  139) = (  -0.6125000   0.0000000   0.8875000), wk =   0.0099502
        k(  140) = (  -0.6187500   0.0000000   0.8812500), wk =   0.0099502
        k(  141) = (  -0.6250000   0.0000000   0.8750000), wk =   0.0099502
        k(  142) = (  -0.6312500   0.0000000   0.8687500), wk =   0.0099502
        k(  143) = (  -0.6375000   0.0000000   0.8625000), wk =   0.0099502
        k(  144) = (  -0.6437500   0.0000000   0.8562500), wk =   0.0099502
        k(  145) = (  -0.6500000   0.0000000   0.8500000), wk =   0.0099502
        k(  146) = (  -0.6562500   0.0000000   0.8437500), wk =   0.0099502
        k(  147) = (  -0.6625000   0.0000000   0.8375000), wk =   0.0099502
        k(  148) = (  -0.6687500   0.0000000   0.8312500), wk =   0.0099502
        k(  149) = (  -0.6750000   0.0000000   0.8250000), wk =   0.0099502
        k(  150) = (  -0.6812500   0.0000000   0.8187500), wk =   0.0099502
        k(  151) = (  -0.6875000   0.0000000   0.8125000), wk =   0.0099502
        k(  152) = (  -0.6937500   0.0000000   0.8062500), wk =   0.0099502
        k(  153) = (  -0.7000000   0.0000000   0.8000000), wk =   0.0099502
        k(  154) = (  -0.7062500   0.0000000   0.7937500), wk =   0.0099502
        k(  155) = (  -0.7125000   0.0000000   0.7875000), wk =   0.0099502
        k(  156) = (  -0.7187500   0.0000000   0.7812500), wk =   0.0099502
        k(  157) = (  -0.7250000   0.0000000   0.7750000), wk =   0.0099502
        k(  158) = (  -0.7312500   0.0000000   0.7687500), wk =   0.0099502
        k(  159) = (  -0.7375000   0.0000000   0.7625000), wk =   0.0099502
        k(  160) = (  -0.7437500   0.0000000   0.7562500), wk =   0.0099502
        k(  161) = (  -0.7500000   0.0000000   0.7500000), wk =   0.0099502
        k(  162) = (  -0.7312500   0.0000000   0.7312500), wk =   0.0099502
        k(  163) = (  -0.7125000   0.0000000   0.7125000), wk =   0.0099502
        k(  164) = (  -0.6937500   0.0000000   0.6937500), wk =   0.0099502
        k(  165) = (  -0.6750000   0.0000000   0.6750000), wk =   0.0099502
        k(  166) = (  -0.6562500   0.0000000   0.6562500), wk =   0.0099502
        k(  167) = (  -0.6375000   0.0000000   0.6375000), wk =   0.0099502
        k(  168) = (  -0.6187500   0.0000000   0.6187500), wk =   0.0099502
        k(  169) = (  -0.6000000   0.0000000   0.6000000), wk =   0.0099502
        k(  170) = (  -0.5812500   0.0000000   0.5812500), wk =   0.0099502
        k(  171) = (  -0.5625000   0.0000000   0.5625000), wk =   0.0099502
        k(  172) = (  -0.5437500   0.0000000   0.5437500), wk =   0.0099502
        k(  173) = (  -0.5250000   0.0000000   0.5250000), wk =   0.0099502
        k(  174) = (  -0.5062500   0.0000000   0.5062500), wk =   0.0099502
        k(  175) = (  -0.4875000   0.0000000   0.4875000), wk =   0.0099502
        k(  176) = (  -0.4687500   0.0000000   0.4687500), wk =   0.0099502
        k(  177) = (  -0.4500000   0.0000000   0.4500000), wk =   0.0099502
        k(  178) = (  -0.4312500   0.0000000   0.4312500), wk =   0.0099502
        k(  179) = (  -0.4125000   0.0000000   0.4125000), wk =   0.0099502
        k(  180) = (  -0.3937500   0.0000000   0.3937500), wk =   0.0099502
        k(  181) = (  -0.3750000   0.0000000   0.3750000), wk =   0.0099502
        k(  182) = (  -0.3562500   0.0000000   0.3562500), wk =   0.0099502
        k(  183) = (  -0.3375000   0.0000000   0.3375000), wk =   0.0099502
        k(  184) = (  -0.3187500   0.0000000   0.3187500), wk =   0.0099502
        k(  185) = (  -0.3000000   0.0000000   0.3000000), wk =   0.0099502
        k(  186) = (  -0.2812500   0.0000000   0.2812500), wk =   0.0099502
        k(  187) = (  -0.2625000   0.0000000   0.2625000), wk =   0.0099502
        k(  188) = (  -0.2437500   0.0000000   0.2437500), wk =   0.0099502
        k(  189) = (  -0.2250000   0.0000000   0.2250000), wk =   0.0099502
        k(  190) = (  -0.2062500   0.0000000   0.2062500), wk =   0.0099502
        k(  191) = (  -0.1875000   0.0000000   0.1875000), wk =   0.0099502
        k(  192) = (  -0.1687500   0.0000000   0.1687500), wk =   0.0099502
        k(  193) = (  -0.1500000   0.0000000   0.1500000), wk =   0.0099502
        k(  194) = (  -0.1312500   0.0000000   0.1312500), wk =   0.0099502
        k(  195) = (  -0.1125000   0.0000000   0.1125000), wk =   0.0099502
        k(  196) = (  -0.0937500   0.0000000   0.0937500), wk =   0.0099502
        k(  197) = (  -0.0750000   0.0000000   0.0750000), wk =   0.0099502
        k(  198) = (  -0.0562500   0.0000000   0.0562500), wk =   0.0099502
        k(  199) = (  -0.0375000   0.0000000   0.0375000), wk =   0.0099502
        k(  200) = (  -0.0187500   0.0000000   0.0187500), wk =   0.0099502
        k(  201) = (   0.0000000   0.0000000   0.0000000), wk =   0.0099502

                       cryst. coord.
        k(    1) = (   0.5000000   0.5000000   0.0000000), wk =   0.0099502
        k(    2) = (   0.4875000   0.4875000   0.0000000), wk =   0.0099502
        k(    3) = (   0.4750000   0.4750000   0.0000000), wk =   0.0099502
        k(    4) = (   0.4625000   0.4625000   0.0000000), wk =   0.0099502
        k(    5) = (   0.4500000   0.4500000   0.0000000), wk =   0.0099502
        k(    6) = (   0.4375000   0.4375000   0.0000000), wk =   0.0099502
        k(    7) = (   0.4250000   0.4250000   0.0000000), wk =   0.0099502
        k(    8) = (   0.4125000   0.4125000   0.0000000), wk =   0.0099502
        k(    9) = (   0.4000000   0.4000000   0.0000000), wk =   0.0099502
        k(   10) = (   0.3875000   0.3875000   0.0000000), wk =   0.0099502
        k(   11) = (   0.3750000   0.3750000   0.0000000), wk =   0.0099502
        k(   12) = (   0.3625000   0.3625000   0.0000000), wk =   0.0099502
        k(   13) = (   0.3500000   0.3500000   0.0000000), wk =   0.0099502
        k(   14) = (   0.3375000   0.3375000   0.0000000), wk =   0.0099502
        k(   15) = (   0.3250000   0.3250000   0.0000000), wk =   0.0099502
        k(   16) = (   0.3125000   0.3125000   0.0000000), wk =   0.0099502
        k(   17) = (   0.3000000   0.3000000   0.0000000), wk =   0.0099502
        k(   18) = (   0.2875000   0.2875000   0.0000000), wk =   0.0099502
        k(   19) = (   0.2750000   0.2750000   0.0000000), wk =   0.0099502
        k(   20) = (   0.2625000   0.2625000   0.0000000), wk =   0.0099502
        k(   21) = (   0.2500000   0.2500000   0.0000000), wk =   0.0099502
        k(   22) = (   0.2375000   0.2375000   0.0000000), wk =   0.0099502
        k(   23) = (   0.2250000   0.2250000   0.0000000), wk =   0.0099502
        k(   24) = (   0.2125000   0.2125000   0.0000000), wk =   0.0099502
        k(   25) = (   0.2000000   0.2000000   0.0000000), wk =   0.0099502
        k(   26) = (   0.1875000   0.1875000   0.0000000), wk =   0.0099502
        k(   27) = (   0.1750000   0.1750000   0.0000000), wk =   0.0099502
        k(   28) = (   0.1625000   0.1625000   0.0000000), wk =   0.0099502
        k(   29) = (   0.1500000   0.1500000   0.0000000), wk =   0.0099502
        k(   30) = (   0.1375000   0.1375000   0.0000000), wk =   0.0099502
        k(   31) = (   0.1250000   0.1250000   0.0000000), wk =   0.0099502
        k(   32) = (   0.1125000   0.1125000   0.0000000), wk =   0.0099502
        k(   33) = (   0.1000000   0.1000000   0.0000000), wk =   0.0099502
        k(   34) = (   0.0875000   0.0875000   0.0000000), wk =   0.0099502
        k(   35) = (   0.0750000   0.0750000   0.0000000), wk =   0.0099502
        k(   36) = (   0.0625000   0.0625000   0.0000000), wk =   0.0099502
        k(   37) = (   0.0500000   0.0500000   0.0000000), wk =   0.0099502
        k(   38) = (   0.0375000   0.0375000   0.0000000), wk =   0.0099502
        k(   39) = (   0.0250000   0.0250000   0.0000000), wk =   0.0099502
        k(   40) = (   0.0125000   0.0125000   0.0000000), wk =   0.0099502
        k(   41) = (   0.0000000   0.0000000   0.0000000), wk =   0.0099502
        k(   42) = (   0.0125000   0.0125000   0.0125000), wk =   0.0099502
        k(   43) = (   0.0250000   0.0250000   0.0250000), wk =   0.0099502
        k(   44) = (   0.0375000   0.0375000   0.0375000), wk =   0.0099502
        k(   45) = (   0.0500000   0.0500000   0.0500000), wk =   0.0099502
        k(   46) = (   0.0625000   0.0625000   0.0625000), wk =   0.0099502
        k(   47) = (   0.0750000   0.0750000   0.0750000), wk =   0.0099502
        k(   48) = (   0.0875000   0.0875000   0.0875000), wk =   0.0099502
        k(   49) = (   0.1000000   0.1000000   0.1000000), wk =   0.0099502
        k(   50) = (   0.1125000   0.1125000   0.1125000), wk =   0.0099502
        k(   51) = (   0.1250000   0.1250000   0.1250000), wk =   0.0099502
        k(   52) = (   0.1375000   0.1375000   0.1375000), wk =   0.0099502
        k(   53) = (   0.1500000   0.1500000   0.1500000), wk =   0.0099502
        k(   54) = (   0.1625000   0.1625000   0.1625000), wk =   0.0099502
        k(   55) = (   0.1750000   0.1750000   0.1750000), wk =   0.0099502
        k(   56) = (   0.1875000   0.1875000   0.1875000), wk =   0.0099502
        k(   57) = (   0.2000000   0.2000000   0.2000000), wk =   0.0099502
        k(   58) = (   0.2125000   0.2125000   0.2125000), wk =   0.0099502
        k(   59) = (   0.2250000   0.2250000   0.2250000), wk =   0.0099502
        k(   60) = (   0.2375000   0.2375000   0.2375000), wk =   0.0099502
        k(   61) = (   0.2500000   0.2500000   0.2500000), wk =   0.0099502
        k(   62) = (   0.2625000   0.2625000   0.2625000), wk =   0.0099502
        k(   63) = (   0.2750000   0.2750000   0.2750000), wk =   0.0099502
        k(   64) = (   0.2875000   0.2875000   0.2875000), wk =   0.0099502
        k(   65) = (   0.3000000   0.3000000   0.3000000), wk =   0.0099502
        k(   66) = (   0.3125000   0.3125000   0.3125000), wk =   0.0099502
        k(   67) = (   0.3250000   0.3250000   0.3250000), wk =   0.0099502
        k(   68) = (   0.3375000   0.3375000   0.3375000), wk =   0.0099502
        k(   69) = (   0.3500000   0.3500000   0.3500000), wk =   0.0099502
        k(   70) = (   0.3625000   0.3625000   0.3625000), wk =   0.0099502
        k(   71) = (   0.3750000   0.3750000   0.3750000), wk =   0.0099502
        k(   72) = (   0.3875000   0.3875000   0.3875000), wk =   0.0099502
        k(   73) = (   0.4000000   0.4000000   0.4000000), wk =   0.0099502
        k(   74) = (   0.4125000   0.4125000   0.4125000), wk =   0.0099502
        k(   75) = (   0.4250000   0.4250000   0.4250000), wk =   0.0099502
        k(   76) = (   0.4375000   0.4375000   0.4375000), wk =   0.0099502
        k(   77) = (   0.4500000   0.4500000   0.4500000), wk =   0.0099502
        k(   78) = (   0.4625000   0.4625000   0.4625000), wk =   0.0099502
        k(   79) = (   0.4750000   0.4750000   0.4750000), wk =   0.0099502
        k(   80) = (   0.4875000   0.4875000   0.4875000), wk =   0.0099502
        k(   81) = (   0.5000000   0.5000000   0.5000000), wk =   0.0099502
        k(   82) = (   0.5062500   0.5000000   0.4937500), wk =   0.0099502
        k(   83) = (   0.5125000   0.5000000   0.4875000), wk =   0.0099502
        k(   84) = (   0.5187500   0.5000000   0.4812500), wk =   0.0099502
        k(   85) = (   0.5250000   0.5000000   0.4750000), wk =   0.0099502
        k(   86) = (   0.5312500   0.5000000   0.4687500), wk =   0.0099502
        k(   87) = (   0.5375000   0.5000000   0.4625000), wk =   0.0099502
        k(   88) = (   0.5437500   0.5000000   0.4562500), wk =   0.0099502
        k(   89) = (   0.5500000   0.5000000   0.4500000), wk =   0.0099502
        k(   90) = (   0.5562500   0.5000000   0.4437500), wk =   0.0099502
        k(   91) = (   0.5625000   0.5000000   0.4375000), wk =   0.0099502
        k(   92) = (   0.5687500   0.5000000   0.4312500), wk =   0.0099502
        k(   93) = (   0.5750000   0.5000000   0.4250000), wk =   0.0099502
        k(   94) = (   0.5812500   0.5000000   0.4187500), wk =   0.0099502
        k(   95) = (   0.5875000   0.5000000   0.4125000), wk =   0.0099502
        k(   96) = (   0.5937500   0.5000000   0.4062500), wk =   0.0099502
        k(   97) = (   0.6000000   0.5000000   0.4000000), wk =   0.0099502
        k(   98) = (   0.6062500   0.5000000   0.3937500), wk =   0.0099502
        k(   99) = (   0.6125000   0.5000000   0.3875000), wk =   0.0099502
        k(  100) = (   0.6187500   0.5000000   0.3812500), wk =   0.0099502
        k(  101) = (   0.6250000   0.5000000   0.3750000), wk =   0.0099502
        k(  102) = (   0.6312500   0.5000000   0.3687500), wk =   0.0099502
        k(  103) = (   0.6375000   0.5000000   0.3625000), wk =   0.0099502
        k(  104) = (   0.6437500   0.5000000   0.3562500), wk =   0.0099502
        k(  105) = (   0.6500000   0.5000000   0.3500000), wk =   0.0099502
        k(  106) = (   0.6562500   0.5000000   0.3437500), wk =   0.0099502
        k(  107) = (   0.6625000   0.5000000   0.3375000), wk =   0.0099502
        k(  108) = (   0.6687500   0.5000000   0.3312500), wk =   0.0099502
        k(  109) = (   0.6750000   0.5000000   0.3250000), wk =   0.0099502
        k(  110) = (   0.6812500   0.5000000   0.3187500), wk =   0.0099502
        k(  111) = (   0.6875000   0.5000000   0.3125000), wk =   0.0099502
        k(  112) = (   0.6937500   0.5000000   0.3062500), wk =   0.0099502
        k(  113) = (   0.7000000   0.5000000   0.3000000), wk =   0.0099502
        k(  114) = (   0.7062500   0.5000000   0.2937500), wk =   0.0099502
        k(  115) = (   0.7125000   0.5000000   0.2875000), wk =   0.0099502
        k(  116) = (   0.7187500   0.5000000   0.2812500), wk =   0.0099502
        k(  117) = (   0.7250000   0.5000000   0.2750000), wk =   0.0099502
        k(  118) = (   0.7312500   0.5000000   0.2687500), wk =   0.0099502
        k(  119) = (   0.7375000   0.5000000   0.2625000), wk =   0.0099502
        k(  120) = (   0.7437500   0.5000000   0.2562500), wk =   0.0099502
        k(  121) = (   0.7500000   0.5000000   0.2500000), wk =   0.0099502
        k(  122) = (   0.7500000   0.4968750   0.2531250), wk =   0.0099502
        k(  123) = (   0.7500000   0.4937500   0.2562500), wk =   0.0099502
        k(  124) = (   0.7500000   0.4906250   0.2593750), wk =   0.0099502
        k(  125) = (   0.7500000   0.4875000   0.2625000), wk =   0.0099502
        k(  126) = (   0.7500000   0.4843750   0.2656250), wk =   0.0099502
        k(  127) = (   0.7500000   0.4812500   0.2687500), wk =   0.0099502
        k(  128) = (   0.7500000   0.4781250   0.2718750), wk =   0.0099502
        k(  129) = (   0.7500000   0.4750000   0.2750000), wk =   0.0099502
        k(  130) = (   0.7500000   0.4718750   0.2781250), wk =   0.0099502
        k(  131) = (   0.7500000   0.4687500   0.2812500), wk =   0.0099502
        k(  132) = (   0.7500000   0.4656250   0.2843750), wk =   0.0099502
        k(  133) = (   0.7500000   0.4625000   0.2875000), wk =   0.0099502
        k(  134) = (   0.7500000   0.4593750   0.2906250), wk =   0.0099502
        k(  135) = (   0.7500000   0.4562500   0.2937500), wk =   0.0099502
        k(  136) = (   0.7500000   0.4531250   0.2968750), wk =   0.0099502
        k(  137) = (   0.7500000   0.4500000   0.3000000), wk =   0.0099502
        k(  138) = (   0.7500000   0.4468750   0.3031250), wk =   0.0099502
        k(  139) = (   0.7500000   0.4437500   0.3062500), wk =   0.0099502
        k(  140) = (   0.7500000   0.4406250   0.3093750), wk =   0.0099502
        k(  141) = (   0.7500000   0.4375000   0.3125000), wk =   0.0099502
        k(  142) = (   0.7500000   0.4343750   0.3156250), wk =   0.0099502
        k(  143) = (   0.7500000   0.4312500   0.3187500), wk =   0.0099502
        k(  144) = (   0.7500000   0.4281250   0.3218750), wk =   0.0099502
        k(  145) = (   0.7500000   0.4250000   0.3250000), wk =   0.0099502
        k(  146) = (   0.7500000   0.4218750   0.3281250), wk =   0.0099502
        k(  147) = (   0.7500000   0.4187500   0.3312500), wk =   0.0099502
        k(  148) = (   0.7500000   0.4156250   0.3343750), wk =   0.0099502
        k(  149) = (   0.7500000   0.4125000   0.3375000), wk =   0.0099502
        k(  150) = (   0.7500000   0.4093750   0.3406250), wk =   0.0099502
        k(  151) = (   0.7500000   0.4062500   0.3437500), wk =   0.0099502
        k(  152) = (   0.7500000   0.4031250   0.3468750), wk =   0.0099502
        k(  153) = (   0.7500000   0.4000000   0.3500000), wk =   0.0099502
        k(  154) = (   0.7500000   0.3968750   0.3531250), wk =   0.0099502
        k(  155) = (   0.7500000   0.3937500   0.3562500), wk =   0.0099502
        k(  156) = (   0.7500000   0.3906250   0.3593750), wk =   0.0099502
        k(  157) = (   0.7500000   0.3875000   0.3625000), wk =   0.0099502
        k(  158) = (   0.7500000   0.3843750   0.3656250), wk =   0.0099502
        k(  159) = (   0.7500000   0.3812500   0.3687500), wk =   0.0099502
        k(  160) = (   0.7500000   0.3781250   0.3718750), wk =   0.0099502
        k(  161) = (   0.7500000   0.3750000   0.3750000), wk =   0.0099502
        k(  162) = (   0.7312500   0.3656250   0.3656250), wk =   0.0099502
        k(  163) = (   0.7125000   0.3562500   0.3562500), wk =   0.0099502
        k(  164) = (   0.6937500   0.3468750   0.3468750), wk =   0.0099502
        k(  165) = (   0.6750000   0.3375000   0.3375000), wk =   0.0099502
        k(  166) = (   0.6562500   0.3281250   0.3281250), wk =   0.0099502
        k(  167) = (   0.6375000   0.3187500   0.3187500), wk =   0.0099502
        k(  168) = (   0.6187500   0.3093750   0.3093750), wk =   0.0099502
        k(  169) = (   0.6000000   0.3000000   0.3000000), wk =   0.0099502
        k(  170) = (   0.5812500   0.2906250   0.2906250), wk =   0.0099502
        k(  171) = (   0.5625000   0.2812500   0.2812500), wk =   0.0099502
        k(  172) = (   0.5437500   0.2718750   0.2718750), wk =   0.0099502
        k(  173) = (   0.5250000   0.2625000   0.2625000), wk =   0.0099502
        k(  174) = (   0.5062500   0.2531250   0.2531250), wk =   0.0099502
        k(  175) = (   0.4875000   0.2437500   0.2437500), wk =   0.0099502
        k(  176) = (   0.4687500   0.2343750   0.2343750), wk =   0.0099502
        k(  177) = (   0.4500000   0.2250000   0.2250000), wk =   0.0099502
        k(  178) = (   0.4312500   0.2156250   0.2156250), wk =   0.0099502
        k(  179) = (   0.4125000   0.2062500   0.2062500), wk =   0.0099502
        k(  180) = (   0.3937500   0.1968750   0.1968750), wk =   0.0099502
        k(  181) = (   0.3750000   0.1875000   0.1875000), wk =   0.0099502
        k(  182) = (   0.3562500   0.1781250   0.1781250), wk =   0.0099502
        k(  183) = (   0.3375000   0.1687500   0.1687500), wk =   0.0099502
        k(  184) = (   0.3187500   0.1593750   0.1593750), wk =   0.0099502
        k(  185) = (   0.3000000   0.1500000   0.1500000), wk =   0.0099502
        k(  186) = (   0.2812500   0.1406250   0.1406250), wk =   0.0099502
        k(  187) = (   0.2625000   0.1312500   0.1312500), wk =   0.0099502
        k(  188) = (   0.2437500   0.1218750   0.1218750), wk =   0.0099502
        k(  189) = (   0.2250000   0.1125000   0.1125000), wk =   0.0099502
        k(  190) = (   0.2062500   0.1031250   0.1031250), wk =   0.0099502
        k(  191) = (   0.1875000   0.0937500   0.0937500), wk =   0.0099502
        k(  192) = (   0.1687500   0.0843750   0.0843750), wk =   0.0099502
        k(  193) = (   0.1500000   0.0750000   0.0750000), wk =   0.0099502
        k(  194) = (   0.1312500   0.0656250   0.0656250), wk =   0.0099502
        k(  195) = (   0.1125000   0.0562500   0.0562500), wk =   0.0099502
        k(  196) = (   0.0937500   0.0468750   0.0468750), wk =   0.0099502
        k(  197) = (   0.0750000   0.0375000   0.0375000), wk =   0.0099502
        k(  198) = (   0.0562500   0.0281250   0.0281250), wk =   0.0099502
        k(  199) = (   0.0375000   0.0187500   0.0187500), wk =   0.0099502
        k(  200) = (   0.0187500   0.0093750   0.0093750), wk =   0.0099502
        k(  201) = (   0.0000000   0.0000000   0.0000000), wk =   0.0099502

     Dense  grid:    12387 G-vectors     FFT dimensions: (  36,  36,  36)

     Smooth grid:     7799 G-vectors     FFT dimensions: (  27,  27,  27)

     Dynamical RAM for                 wfc:       0.19 MB

     Dynamical RAM for     wfc (w. buffer):       0.19 MB

     Dynamical RAM for           str. fact:       0.38 MB

     Dynamical RAM for           local pot:       0.00 MB

     Dynamical RAM for          nlocal pot:       0.39 MB

     Dynamical RAM for                qrad:       2.15 MB

     Dynamical RAM for          rho,v,vnew:       1.63 MB

     Dynamical RAM for           G-vectors:       0.77 MB

     Dynamical RAM for          h,s,v(r/c):       0.03 MB

     Dynamical RAM for          <psi|beta>:       0.01 MB

     Dynamical RAM for                 psi:       0.39 MB

     Dynamical RAM for                hpsi:       0.39 MB

     Dynamical RAM for                spsi:       0.39 MB

     Dynamical RAM for      wfcinit/wfcrot:       0.39 MB

     Dynamical RAM for           addusdens:      35.34 MB

     Estimated static dynamical RAM per process >       7.86 MB

     Estimated max dynamical RAM per process >      43.21 MB

     Check: negative core charge=   -0.000015

     The potential is recalculated from file :
     ./SCRATCH/gallium_arsenide.save/charge-density

     Starting wfcs are   13 randomized atomic wfcs

     Band Structure Calculation
     Davidson diagonalization with overlap

     Computing kpt #:     1  of   201
     total cpu time spent up to now is        0.6 secs

     Computing kpt #:     2  of   201
     total cpu time spent up to now is        0.7 secs

     Computing kpt #:     3  of   201
     total cpu time spent up to now is        0.8 secs

     Computing kpt #:     4  of   201
     total cpu time spent up to now is        1.0 secs

     Computing kpt #:     5  of   201
     total cpu time spent up to now is        1.1 secs

     Computing kpt #:     6  of   201
     total cpu time spent up to now is        1.2 secs

     Computing kpt #:     7  of   201
     total cpu time spent up to now is        1.3 secs

     Computing kpt #:     8  of   201
     total cpu time spent up to now is        1.4 secs

     Computing kpt #:     9  of   201
     total cpu time spent up to now is        1.5 secs

     Computing kpt #:    10  of   201
     total cpu time spent up to now is        1.7 secs

     Computing kpt #:    11  of   201
     total cpu time spent up to now is        1.8 secs

     Computing kpt #:    12  of   201
     total cpu time spent up to now is        1.9 secs

     Computing kpt #:    13  of   201
     total cpu time spent up to now is        2.0 secs

     Computing kpt #:    14  of   201
     total cpu time spent up to now is        2.1 secs

     Computing kpt #:    15  of   201
     total cpu time spent up to now is        2.3 secs

     Computing kpt #:    16  of   201
     total cpu time spent up to now is        2.4 secs

     Computing kpt #:    17  of   201
     total cpu time spent up to now is        2.5 secs

     Computing kpt #:    18  of   201
     total cpu time spent up to now is        2.6 secs

     Computing kpt #:    19  of   201
     total cpu time spent up to now is        2.7 secs

     Computing kpt #:    20  of   201
     total cpu time spent up to now is        2.8 secs

     Computing kpt #:    21  of   201
     total cpu time spent up to now is        2.9 secs

     Computing kpt #:    22  of   201
     total cpu time spent up to now is        3.0 secs

     Computing kpt #:    23  of   201
     total cpu time spent up to now is        3.1 secs

     Computing kpt #:    24  of   201
     total cpu time spent up to now is        3.2 secs

     Computing kpt #:    25  of   201
     total cpu time spent up to now is        3.3 secs

     Computing kpt #:    26  of   201
     total cpu time spent up to now is        3.4 secs

     Computing kpt #:    27  of   201
     total cpu time spent up to now is        3.5 secs

     Computing kpt #:    28  of   201
     total cpu time spent up to now is        3.6 secs

     Computing kpt #:    29  of   201
     total cpu time spent up to now is        3.7 secs

     Computing kpt #:    30  of   201
     total cpu time spent up to now is        3.8 secs

     Computing kpt #:    31  of   201
     total cpu time spent up to now is        3.9 secs

     Computing kpt #:    32  of   201
     total cpu time spent up to now is        4.0 secs

     Computing kpt #:    33  of   201
     total cpu time spent up to now is        4.1 secs

     Computing kpt #:    34  of   201
     total cpu time spent up to now is        4.2 secs

     Computing kpt #:    35  of   201
     total cpu time spent up to now is        4.3 secs

     Computing kpt #:    36  of   201
     total cpu time spent up to now is        4.4 secs

     Computing kpt #:    37  of   201
     total cpu time spent up to now is        4.5 secs

     Computing kpt #:    38  of   201
     total cpu time spent up to now is        4.6 secs

     Computing kpt #:    39  of   201
     total cpu time spent up to now is        4.6 secs

     Computing kpt #:    40  of   201
     total cpu time spent up to now is        4.7 secs

     Computing kpt #:    41  of   201
     total cpu time spent up to now is        4.8 secs

     Computing kpt #:    42  of   201
     total cpu time spent up to now is        4.9 secs

     Computing kpt #:    43  of   201
     total cpu time spent up to now is        5.0 secs

     Computing kpt #:    44  of   201
     total cpu time spent up to now is        5.1 secs

     Computing kpt #:    45  of   201
     total cpu time spent up to now is        5.2 secs

     Computing kpt #:    46  of   201
     total cpu time spent up to now is        5.3 secs

     Computing kpt #:    47  of   201
     total cpu time spent up to now is        5.4 secs

     Computing kpt #:    48  of   201
     total cpu time spent up to now is        5.5 secs

     Computing kpt #:    49  of   201
     total cpu time spent up to now is        5.6 secs

     Computing kpt #:    50  of   201
     total cpu time spent up to now is        5.7 secs

     Computing kpt #:    51  of   201
     total cpu time spent up to now is        5.8 secs

     Computing kpt #:    52  of   201
     total cpu time spent up to now is        5.9 secs

     Computing kpt #:    53  of   201
     total cpu time spent up to now is        6.0 secs

     Computing kpt #:    54  of   201
     total cpu time spent up to now is        6.1 secs

     Computing kpt #:    55  of   201
     total cpu time spent up to now is        6.2 secs

     Computing kpt #:    56  of   201
     total cpu time spent up to now is        6.3 secs

     Computing kpt #:    57  of   201
     total cpu time spent up to now is        6.4 secs

     Computing kpt #:    58  of   201
     total cpu time spent up to now is        6.5 secs

     Computing kpt #:    59  of   201
     total cpu time spent up to now is        6.6 secs

     Computing kpt #:    60  of   201
     total cpu time spent up to now is        6.7 secs

     Computing kpt #:    61  of   201
     total cpu time spent up to now is        6.7 secs

     Computing kpt #:    62  of   201
     total cpu time spent up to now is        6.8 secs

     Computing kpt #:    63  of   201
     total cpu time spent up to now is        6.9 secs

     Computing kpt #:    64  of   201
     total cpu time spent up to now is        7.0 secs

     Computing kpt #:    65  of   201
     total cpu time spent up to now is        7.1 secs

     Computing kpt #:    66  of   201
     total cpu time spent up to now is        7.3 secs

     Computing kpt #:    67  of   201
     total cpu time spent up to now is        7.4 secs

     Computing kpt #:    68  of   201
     total cpu time spent up to now is        7.5 secs

     Computing kpt #:    69  of   201
     total cpu time spent up to now is        7.6 secs

     Computing kpt #:    70  of   201
     total cpu time spent up to now is        7.7 secs

     Computing kpt #:    71  of   201
     total cpu time spent up to now is        7.9 secs

     Computing kpt #:    72  of   201
     total cpu time spent up to now is        8.0 secs

     Computing kpt #:    73  of   201
     total cpu time spent up to now is        8.1 secs

     Computing kpt #:    74  of   201
     total cpu time spent up to now is        8.2 secs

     Computing kpt #:    75  of   201
     total cpu time spent up to now is        8.3 secs

     Computing kpt #:    76  of   201
     total cpu time spent up to now is        8.5 secs

     Computing kpt #:    77  of   201
     total cpu time spent up to now is        8.6 secs

     Computing kpt #:    78  of   201
     total cpu time spent up to now is        8.7 secs

     Computing kpt #:    79  of   201
     total cpu time spent up to now is        8.8 secs

     Computing kpt #:    80  of   201
     total cpu time spent up to now is        8.9 secs

     Computing kpt #:    81  of   201
     total cpu time spent up to now is        9.0 secs

     Computing kpt #:    82  of   201
     total cpu time spent up to now is        9.1 secs

     Computing kpt #:    83  of   201
     total cpu time spent up to now is        9.2 secs

     Computing kpt #:    84  of   201
     total cpu time spent up to now is        9.4 secs

     Computing kpt #:    85  of   201
     total cpu time spent up to now is        9.5 secs

     Computing kpt #:    86  of   201
     total cpu time spent up to now is        9.6 secs

     Computing kpt #:    87  of   201
     total cpu time spent up to now is        9.7 secs

     Computing kpt #:    88  of   201
     total cpu time spent up to now is        9.8 secs

     Computing kpt #:    89  of   201
     total cpu time spent up to now is        9.9 secs

     Computing kpt #:    90  of   201
     total cpu time spent up to now is       10.1 secs

     Computing kpt #:    91  of   201
     total cpu time spent up to now is       10.2 secs

     Computing kpt #:    92  of   201
     total cpu time spent up to now is       10.3 secs

     Computing kpt #:    93  of   201
     total cpu time spent up to now is       10.4 secs

     Computing kpt #:    94  of   201
     total cpu time spent up to now is       10.5 secs

     Computing kpt #:    95  of   201
     total cpu time spent up to now is       10.6 secs

     Computing kpt #:    96  of   201
     total cpu time spent up to now is       10.7 secs

     Computing kpt #:    97  of   201
     total cpu time spent up to now is       10.9 secs

     Computing kpt #:    98  of   201
     total cpu time spent up to now is       11.0 secs

     Computing kpt #:    99  of   201
     total cpu time spent up to now is       11.1 secs

     Computing kpt #:   100  of   201
     total cpu time spent up to now is       11.2 secs

     Computing kpt #:   101  of   201
     total cpu time spent up to now is       11.4 secs

     Computing kpt #:   102  of   201
     total cpu time spent up to now is       11.5 secs

     Computing kpt #:   103  of   201
     total cpu time spent up to now is       11.6 secs

     Computing kpt #:   104  of   201
     total cpu time spent up to now is       11.7 secs

     Computing kpt #:   105  of   201
     total cpu time spent up to now is       11.9 secs

     Computing kpt #:   106  of   201
     total cpu time spent up to now is       12.0 secs

     Computing kpt #:   107  of   201
     total cpu time spent up to now is       12.1 secs

     Computing kpt #:   108  of   201
     total cpu time spent up to now is       12.2 secs

     Computing kpt #:   109  of   201
     total cpu time spent up to now is       12.4 secs

     Computing kpt #:   110  of   201
     total cpu time spent up to now is       12.5 secs

     Computing kpt #:   111  of   201
     total cpu time spent up to now is       12.6 secs

     Computing kpt #:   112  of   201
     total cpu time spent up to now is       12.7 secs

     Computing kpt #:   113  of   201
     total cpu time spent up to now is       12.8 secs

     Computing kpt #:   114  of   201
     total cpu time spent up to now is       12.9 secs

     Computing kpt #:   115  of   201
     total cpu time spent up to now is       13.0 secs

     Computing kpt #:   116  of   201
     total cpu time spent up to now is       13.2 secs

     Computing kpt #:   117  of   201
     total cpu time spent up to now is       13.3 secs

     Computing kpt #:   118  of   201
     total cpu time spent up to now is       13.4 secs

     Computing kpt #:   119  of   201
     total cpu time spent up to now is       13.5 secs

     Computing kpt #:   120  of   201
     total cpu time spent up to now is       13.6 secs

     Computing kpt #:   121  of   201
     total cpu time spent up to now is       13.7 secs

     Computing kpt #:   122  of   201
     total cpu time spent up to now is       13.8 secs

     Computing kpt #:   123  of   201
     total cpu time spent up to now is       13.9 secs

     Computing kpt #:   124  of   201
     total cpu time spent up to now is       14.0 secs

     Computing kpt #:   125  of   201
     total cpu time spent up to now is       14.1 secs

     Computing kpt #:   126  of   201
     total cpu time spent up to now is       14.2 secs

     Computing kpt #:   127  of   201
     total cpu time spent up to now is       14.3 secs

     Computing kpt #:   128  of   201
     total cpu time spent up to now is       14.4 secs

     Computing kpt #:   129  of   201
     total cpu time spent up to now is       14.5 secs

     Computing kpt #:   130  of   201
     total cpu time spent up to now is       14.6 secs

     Computing kpt #:   131  of   201
     total cpu time spent up to now is       14.7 secs

     Computing kpt #:   132  of   201
     total cpu time spent up to now is       14.8 secs

     Computing kpt #:   133  of   201
     total cpu time spent up to now is       14.9 secs

     Computing kpt #:   134  of   201
     total cpu time spent up to now is       15.0 secs

     Computing kpt #:   135  of   201
     total cpu time spent up to now is       15.1 secs

     Computing kpt #:   136  of   201
     total cpu time spent up to now is       15.2 secs

     Computing kpt #:   137  of   201
     total cpu time spent up to now is       15.3 secs

     Computing kpt #:   138  of   201
     total cpu time spent up to now is       15.4 secs

     Computing kpt #:   139  of   201
     total cpu time spent up to now is       15.6 secs

     Computing kpt #:   140  of   201
     total cpu time spent up to now is       15.7 secs

     Computing kpt #:   141  of   201
     total cpu time spent up to now is       15.8 secs

     Computing kpt #:   142  of   201
     total cpu time spent up to now is       15.9 secs

     Computing kpt #:   143  of   201
     total cpu time spent up to now is       16.0 secs

     Computing kpt #:   144  of   201
     total cpu time spent up to now is       16.2 secs

     Computing kpt #:   145  of   201
     total cpu time spent up to now is       16.3 secs

     Computing kpt #:   146  of   201
     total cpu time spent up to now is       16.4 secs

     Computing kpt #:   147  of   201
     total cpu time spent up to now is       16.5 secs

     Computing kpt #:   148  of   201
     total cpu time spent up to now is       16.7 secs

     Computing kpt #:   149  of   201
     total cpu time spent up to now is       16.8 secs

     Computing kpt #:   150  of   201
     total cpu time spent up to now is       16.9 secs

     Computing kpt #:   151  of   201
     total cpu time spent up to now is       17.0 secs

     Computing kpt #:   152  of   201
     total cpu time spent up to now is       17.1 secs

     Computing kpt #:   153  of   201
     total cpu time spent up to now is       17.3 secs

     Computing kpt #:   154  of   201
     total cpu time spent up to now is       17.4 secs

     Computing kpt #:   155  of   201
     total cpu time spent up to now is       17.5 secs

     Computing kpt #:   156  of   201
     total cpu time spent up to now is       17.6 secs

     Computing kpt #:   157  of   201
     total cpu time spent up to now is       17.8 secs

     Computing kpt #:   158  of   201
     total cpu time spent up to now is       17.9 secs

     Computing kpt #:   159  of   201
     total cpu time spent up to now is       18.0 secs

     Computing kpt #:   160  of   201
     total cpu time spent up to now is       18.1 secs

     Computing kpt #:   161  of   201
     total cpu time spent up to now is       18.3 secs

     Computing kpt #:   162  of   201
     total cpu time spent up to now is       18.4 secs

     Computing kpt #:   163  of   201
     total cpu time spent up to now is       18.5 secs

     Computing kpt #:   164  of   201
     total cpu time spent up to now is       18.6 secs

     Computing kpt #:   165  of   201
     total cpu time spent up to now is       18.8 secs

     Computing kpt #:   166  of   201
     total cpu time spent up to now is       18.9 secs

     Computing kpt #:   167  of   201
     total cpu time spent up to now is       19.0 secs

     Computing kpt #:   168  of   201
     total cpu time spent up to now is       19.1 secs

     Computing kpt #:   169  of   201
     total cpu time spent up to now is       19.3 secs

     Computing kpt #:   170  of   201
     total cpu time spent up to now is       19.4 secs

     Computing kpt #:   171  of   201
     total cpu time spent up to now is       19.5 secs

     Computing kpt #:   172  of   201
     total cpu time spent up to now is       19.6 secs

     Computing kpt #:   173  of   201
     total cpu time spent up to now is       19.7 secs

     Computing kpt #:   174  of   201
     total cpu time spent up to now is       19.8 secs

     Computing kpt #:   175  of   201
     total cpu time spent up to now is       19.9 secs

     Computing kpt #:   176  of   201
     total cpu time spent up to now is       20.0 secs

     Computing kpt #:   177  of   201
     total cpu time spent up to now is       20.1 secs

     Computing kpt #:   178  of   201
     total cpu time spent up to now is       20.2 secs

     Computing kpt #:   179  of   201
     total cpu time spent up to now is       20.3 secs

     Computing kpt #:   180  of   201
     total cpu time spent up to now is       20.4 secs

     Computing kpt #:   181  of   201
     total cpu time spent up to now is       20.5 secs

     Computing kpt #:   182  of   201
     total cpu time spent up to now is       20.6 secs

     Computing kpt #:   183  of   201
     total cpu time spent up to now is       20.7 secs

     Computing kpt #:   184  of   201
     total cpu time spent up to now is       20.8 secs

     Computing kpt #:   185  of   201
     total cpu time spent up to now is       20.9 secs

     Computing kpt #:   186  of   201
     total cpu time spent up to now is       21.0 secs

     Computing kpt #:   187  of   201
     total cpu time spent up to now is       21.1 secs

     Computing kpt #:   188  of   201
     total cpu time spent up to now is       21.2 secs

     Computing kpt #:   189  of   201
     total cpu time spent up to now is       21.3 secs

     Computing kpt #:   190  of   201
     total cpu time spent up to now is       21.4 secs

     Computing kpt #:   191  of   201
     total cpu time spent up to now is       21.5 secs

     Computing kpt #:   192  of   201
     total cpu time spent up to now is       21.6 secs

     Computing kpt #:   193  of   201
     total cpu time spent up to now is       21.6 secs

     Computing kpt #:   194  of   201
     total cpu time spent up to now is       21.7 secs

     Computing kpt #:   195  of   201
     total cpu time spent up to now is       21.8 secs

     Computing kpt #:   196  of   201
     total cpu time spent up to now is       21.9 secs

     Computing kpt #:   197  of   201
     total cpu time spent up to now is       22.0 secs

     Computing kpt #:   198  of   201
     total cpu time spent up to now is       22.1 secs

     Computing kpt #:   199  of   201
     total cpu time spent up to now is       22.2 secs

     Computing kpt #:   200  of   201
     total cpu time spent up to now is       22.3 secs

     Computing kpt #:   201  of   201
     total cpu time spent up to now is       22.4 secs

     ethr =  5.56E-10,  avg # of iterations = 20.5

     total cpu time spent up to now is       22.4 secs

     End of band structure calculation

          k = 0.0000 0.0000 1.0000 (   982 PWs)   bands (ev):

    -8.1232  -7.9629  -7.9629  -7.9588  -7.9191  -3.4524  -0.0463   4.0967
     4.0967   8.2425   8.4274  16.9799  16.9799

          k = 0.0000 0.0000 0.9750 (   982 PWs)   bands (ev):

    -8.1231  -7.9630  -7.9630  -7.9588  -7.9191  -3.4604  -0.0354   4.0993
     4.0993   8.2369   8.4396  16.9581  16.9581

          k = 0.0000 0.0000 0.9500 (   982 PWs)   bands (ev):

    -8.1227  -7.9632  -7.9632  -7.9586  -7.9192  -3.4840  -0.0028   4.1070
     4.1070   8.2238   8.4724  16.8945  16.8945

          k = 0.0000 0.0000 0.9250 (   982 PWs)   bands (ev):

    -8.1220  -7.9636  -7.9636  -7.9584  -7.9193  -3.5224   0.0504   4.1200
     4.1200   8.2094   8.5196  16.7942  16.7942

          k = 0.0000 0.0000 0.9000 (   986 PWs)   bands (ev):

    -8.1211  -7.9642  -7.9642  -7.9581  -7.9194  -3.5742   0.1228   4.1381
     4.1381   8.1975   8.5774  16.6636  16.6636

          k = 0.0000 0.0000 0.8750 (   978 PWs)   bands (ev):

    -8.1199  -7.9649  -7.9649  -7.9577  -7.9196  -3.6375   0.2127   4.1614
     4.1614   8.1899   8.6438  16.5094  16.5094

          k = 0.0000 0.0000 0.8500 (   978 PWs)   bands (ev):

    -8.1185  -7.9657  -7.9657  -7.9572  -7.9198  -3.7106   0.3183   4.1897
     4.1897   8.1875   8.7176  16.3371  16.3371

          k = 0.0000 0.0000 0.8250 (   990 PWs)   bands (ev):

    -8.1168  -7.9667  -7.9667  -7.9567  -7.9201  -3.7917   0.4376   4.2231
     4.2231   8.1907   8.7981  16.1513  16.1513

          k = 0.0000 0.0000 0.8000 (   990 PWs)   bands (ev):

    -8.1149  -7.9678  -7.9678  -7.9560  -7.9204  -3.8790   0.5691   4.2616
     4.2616   8.1999   8.8848  15.9558  15.9558

          k = 0.0000 0.0000 0.7750 (   990 PWs)   bands (ev):

    -8.1128  -7.9691  -7.9691  -7.9553  -7.9208  -3.9712   0.7111   4.3050
     4.3050   8.2150   8.9772  15.7533  15.7533

          k = 0.0000 0.0000 0.7500 (   982 PWs)   bands (ev):

    -8.1104  -7.9704  -7.9704  -7.9546  -7.9212  -4.0668   0.8624   4.3533
     4.3533   8.2360   9.0747  15.5458  15.5458

          k = 0.0000 0.0000 0.7250 (   982 PWs)   bands (ev):

    -8.1078  -7.9719  -7.9719  -7.9537  -7.9216  -4.1648   1.0216   4.4065
     4.4065   8.2631   9.1766  15.3346  15.3346

          k = 0.0000 0.0000 0.7000 (   982 PWs)   bands (ev):

    -8.1049  -7.9735  -7.9735  -7.9529  -7.9220  -4.2640   1.1879   4.4644
     4.4644   8.2960   9.2821  15.1211  15.1211

          k = 0.0000 0.0000 0.6750 (   982 PWs)   bands (ev):

    -8.1019  -7.9751  -7.9751  -7.9519  -7.9225  -4.3638   1.3602   4.5270
     4.5270   8.3349   9.3901  14.9061  14.9061

          k = 0.0000 0.0000 0.6500 (   982 PWs)   bands (ev):

    -8.0986  -7.9768  -7.9768  -7.9510  -7.9230  -4.4633   1.5380   4.5941
     4.5941   8.3795   9.4994  14.6904  14.6904

          k = 0.0000 0.0000 0.6250 (   982 PWs)   bands (ev):

    -8.0952  -7.9786  -7.9786  -7.9500  -7.9235  -4.5619   1.7205   4.6656
     4.6656   8.4296   9.6084  14.4744  14.4744

          k = 0.0000 0.0000 0.6000 (   982 PWs)   bands (ev):

    -8.0916  -7.9805  -7.9805  -7.9490  -7.9240  -4.6592   1.9072   4.7415
     4.7415   8.4853   9.7149  14.2587  14.2587

          k = 0.0000 0.0000 0.5750 (   990 PWs)   bands (ev):

    -8.0879  -7.9824  -7.9824  -7.9480  -7.9246  -4.7548   2.0976   4.8215
     4.8215   8.5462   9.8165  14.0435  14.0435

          k = 0.0000 0.0000 0.5500 (   982 PWs)   bands (ev):

    -8.0840  -7.9843  -7.9843  -7.9469  -7.9251  -4.8481   2.2913   4.9055
     4.9055   8.6122   9.9102  13.8295  13.8295

          k = 0.0000 0.0000 0.5250 (   982 PWs)   bands (ev):

    -8.0799  -7.9863  -7.9863  -7.9459  -7.9257  -4.9389   2.4881   4.9934
     4.9934   8.6831   9.9922  13.6167  13.6167

          k = 0.0000 0.0000 0.5000 (   982 PWs)   bands (ev):

    -8.0758  -7.9882  -7.9882  -7.9449  -7.9262  -5.0269   2.6876   5.0848
     5.0848   8.7584  10.0584  13.4055  13.4055

          k = 0.0000 0.0000 0.4750 (   982 PWs)   bands (ev):

    -8.0715  -7.9902  -7.9902  -7.9439  -7.9268  -5.1119   2.8895   5.1796
     5.1796   8.8378  10.1047  13.1964  13.1964

          k = 0.0000 0.0000 0.4500 (   982 PWs)   bands (ev):

    -8.0672  -7.9921  -7.9921  -7.9429  -7.9274  -5.1937   3.0937   5.2774
     5.2774   8.9206  10.1271  12.9895  12.9895

          k = 0.0000 0.0000 0.4250 (   978 PWs)   bands (ev):

    -8.0629  -7.9940  -7.9940  -7.9419  -7.9279  -5.2719   3.3000   5.3781
     5.3781   9.0059  10.1229  12.7853  12.7853

          k = 0.0000 0.0000 0.4000 (   978 PWs)   bands (ev):

    -8.0585  -7.9958  -7.9958  -7.9410  -7.9284  -5.3466   3.5082   5.4811
     5.4811   9.0924  10.0914  12.5843  12.5843

          k = 0.0000 0.0000 0.3750 (   974 PWs)   bands (ev):

    -8.0542  -7.9976  -7.9976  -7.9401  -7.9290  -5.4174   3.7181   5.5860
     5.5860   9.1773  10.0346  12.3870  12.3870

          k = 0.0000 0.0000 0.3500 (   966 PWs)   bands (ev):

    -8.0498  -7.9994  -7.9994  -7.9392  -7.9295  -5.4843   3.9297   5.6925
     5.6925   9.2556   9.9592  12.1938  12.1938

          k = 0.0000 0.0000 0.3250 (   966 PWs)   bands (ev):

    -8.0456  -8.0010  -8.0010  -7.9384  -7.9300  -5.5472   4.1428   5.7999
     5.7999   9.3150   9.8795  12.0053  12.0053

          k = 0.0000 0.0000 0.3000 (   966 PWs)   bands (ev):

    -8.0414  -8.0026  -8.0026  -7.9377  -7.9304  -5.6059   4.3573   5.9075
     5.9075   9.3297   9.8244  11.8223  11.8223

          k = 0.0000 0.0000 0.2750 (   962 PWs)   bands (ev):

    -8.0374  -8.0041  -8.0041  -7.9370  -7.9309  -5.6603   4.5731   6.0146
     6.0146   9.2712   9.8253  11.6456  11.6456

          k = 0.0000 0.0000 0.2500 (   950 PWs)   bands (ev):

    -8.0336  -8.0055  -8.0055  -7.9363  -7.9313  -5.7104   4.7900   6.1202
     6.1202   9.1474   9.8770  11.4764  11.4764

          k = 0.0000 0.0000 0.2250 (   957 PWs)   bands (ev):

    -8.0299  -8.0068  -8.0068  -7.9357  -7.9317  -5.7559   5.0080   6.2233
     6.2233   8.9852   9.9543  11.3153  11.3153

          k = 0.0000 0.0000 0.2000 (   953 PWs)   bands (ev):

    -8.0266  -8.0079  -8.0079  -7.9352  -7.9320  -5.7969   5.2268   6.3226
     6.3226   8.8017  10.0414  11.1641  11.1641

          k = 0.0000 0.0000 0.1750 (   953 PWs)   bands (ev):

    -8.0235  -8.0090  -8.0090  -7.9348  -7.9324  -5.8333   5.4462   6.4167
     6.4167   8.6054  10.1305  11.0240  11.0240

          k = 0.0000 0.0000 0.1500 (   953 PWs)   bands (ev):

    -8.0207  -8.0099  -8.0099  -7.9344  -7.9326  -5.8649   5.6658   6.5040
     6.5040   8.4011  10.2170  10.8967  10.8967

          k = 0.0000 0.0000 0.1250 (   953 PWs)   bands (ev):

    -8.0183  -8.0107  -8.0107  -7.9341  -7.9329  -5.8918   5.8851   6.5826
     6.5826   8.1918  10.2972  10.7842  10.7842

          k = 0.0000 0.0000 0.1000 (   953 PWs)   bands (ev):

    -8.0162  -8.0113  -8.0113  -7.9339  -7.9331  -5.9139   6.1028   6.6506
     6.6506   7.9805  10.3683  10.6884  10.6884

          k = 0.0000 0.0000 0.0750 (   945 PWs)   bands (ev):

    -8.0146  -8.0118  -8.0118  -7.9337  -7.9332  -5.9311   6.3167   6.7061
     6.7061   7.7706  10.4273  10.6114  10.6114

          k = 0.0000 0.0000 0.0500 (   945 PWs)   bands (ev):

    -8.0134  -8.0122  -8.0122  -7.9335  -7.9333  -5.9435   6.5211   6.7473
     6.7473   7.5685  10.4716  10.5547  10.5547

          k = 0.0000 0.0000 0.0250 (   941 PWs)   bands (ev):

    -8.0127  -8.0124  -8.0124  -7.9334  -7.9334  -5.9509   6.6975   6.7727
     6.7727   7.3933  10.4991  10.5201  10.5201

          k = 0.0000 0.0000 0.0000 (   941 PWs)   bands (ev):

    -8.0125  -8.0125  -8.0125  -7.9334  -7.9334  -5.9533   6.7813   6.7813
     6.7813   7.3099  10.5084  10.5084  10.5084

          k =-0.0125 0.0125 0.0125 (   941 PWs)   bands (ev):

    -8.0126  -8.0125  -8.0125  -7.9334  -7.9334  -5.9515   6.7099   6.7786
     6.7786   7.3736  10.5107  10.5125  10.5125

          k =-0.0250 0.0250 0.0250 (   944 PWs)   bands (ev):

    -8.0131  -8.0123  -8.0123  -7.9334  -7.9334  -5.9459   6.5508   6.7703
     6.7703   7.5094  10.5179  10.5248  10.5248

          k =-0.0375 0.0375 0.0375 (   944 PWs)   bands (ev):

    -8.0138  -8.0121  -8.0121  -7.9334  -7.9334  -5.9367   6.3585   6.7569
     6.7569   7.6621  10.5315  10.5450  10.5450

          k =-0.0500 0.0500 0.0500 (   950 PWs)   bands (ev):

    -8.0148  -8.0119  -8.0119  -7.9334  -7.9334  -5.9238   6.1515   6.7383
     6.7383   7.8120  10.5533  10.5727  10.5727

          k =-0.0625 0.0625 0.0625 (   950 PWs)   bands (ev):

    -8.0161  -8.0116  -8.0116  -7.9335  -7.9335  -5.9072   5.9366   6.7151
     6.7151   7.9512  10.5857  10.6074  10.6074

          k =-0.0750 0.0750 0.0750 (   950 PWs)   bands (ev):

    -8.0176  -8.0111  -8.0111  -7.9335  -7.9335  -5.8870   5.7168   6.6875
     6.6875   8.0751  10.6312  10.6485  10.6485

          k =-0.0875 0.0875 0.0875 (   950 PWs)   bands (ev):

    -8.0193  -8.0107  -8.0107  -7.9335  -7.9335  -5.8633   5.4939   6.6562
     6.6562   8.1810  10.6923  10.6952  10.6952

          k =-0.1000 0.1000 0.1000 (   950 PWs)   bands (ev):

    -8.0213  -8.0101  -8.0101  -7.9335  -7.9335  -5.8360   5.2690   6.6214
     6.6214   8.2672  10.7465  10.7465  10.7707

          k =-0.1125 0.1125 0.1125 (   953 PWs)   bands (ev):

    -8.0235  -8.0096  -8.0096  -7.9335  -7.9335  -5.8052   5.0430   6.5838
     6.5838   8.3332  10.8018  10.8018  10.8671

          k =-0.1250 0.1250 0.1250 (   959 PWs)   bands (ev):

    -8.0259  -8.0089  -8.0089  -7.9335  -7.9335  -5.7710   4.8166   6.5437
     6.5437   8.3798  10.8598  10.8598  10.9815

          k =-0.1375 0.1375 0.1375 (   959 PWs)   bands (ev):

    -8.0284  -8.0082  -8.0082  -7.9335  -7.9335  -5.7335   4.5904   6.5017
     6.5017   8.4087  10.9197  10.9197  11.1129

          k =-0.1500 0.1500 0.1500 (   962 PWs)   bands (ev):

    -8.0311  -8.0075  -8.0075  -7.9335  -7.9335  -5.6927   4.3649   6.4583
     6.4583   8.4221  10.9803  10.9803  11.2593

          k =-0.1625 0.1625 0.1625 (   962 PWs)   bands (ev):

    -8.0339  -8.0068  -8.0068  -7.9334  -7.9334  -5.6487   4.1406   6.4137
     6.4137   8.4224  11.0408  11.0408  11.4189

          k =-0.1750 0.1750 0.1750 (   962 PWs)   bands (ev):

    -8.0368  -8.0060  -8.0060  -7.9334  -7.9334  -5.6017   3.9179   6.3684
     6.3684   8.4122  11.1000  11.1000  11.5896

          k =-0.1875 0.1875 0.1875 (   962 PWs)   bands (ev):

    -8.0398  -8.0052  -8.0052  -7.9333  -7.9333  -5.5517   3.6972   6.3229
     6.3229   8.3937  11.1570  11.1570  11.7694

          k =-0.2000 0.2000 0.2000 (   956 PWs)   bands (ev):

    -8.0428  -8.0044  -8.0044  -7.9332  -7.9332  -5.4988   3.4788   6.2773
     6.2773   8.3688  11.2108  11.2108  11.9568

          k =-0.2125 0.2125 0.2125 (   962 PWs)   bands (ev):

    -8.0459  -8.0036  -8.0036  -7.9332  -7.9332  -5.4432   3.2632   6.2319
     6.2319   8.3391  11.2607  11.2607  12.1503

          k =-0.2250 0.2250 0.2250 (   962 PWs)   bands (ev):

    -8.0490  -8.0028  -8.0028  -7.9330  -7.9330  -5.3851   3.0506   6.1872
     6.1872   8.3061  11.3060  11.3060  12.3484

          k =-0.2375 0.2375 0.2375 (   959 PWs)   bands (ev):

    -8.0521  -8.0020  -8.0020  -7.9329  -7.9329  -5.3246   2.8415   6.1432
     6.1432   8.2709  11.3462  11.3462  12.5502

          k =-0.2500 0.2500 0.2500 (   962 PWs)   bands (ev):

    -8.0551  -8.0012  -8.0012  -7.9328  -7.9328  -5.2619   2.6362   6.1002
     6.1002   8.2343  11.3808  11.3808  12.7543

          k =-0.2625 0.2625 0.2625 (   962 PWs)   bands (ev):

    -8.0582  -8.0004  -8.0004  -7.9326  -7.9326  -5.1972   2.4351   6.0584
     6.0584   8.1971  11.4099  11.4099  12.9596

          k =-0.2750 0.2750 0.2750 (   968 PWs)   bands (ev):

    -8.0611  -7.9997  -7.9997  -7.9324  -7.9324  -5.1308   2.2385   6.0180
     6.0180   8.1599  11.4333  11.4333  13.1649

          k =-0.2875 0.2875 0.2875 (   974 PWs)   bands (ev):

    -8.0641  -7.9990  -7.9990  -7.9322  -7.9322  -5.0629   2.0469   5.9791
     5.9791   8.1232  11.4514  11.4514  13.3684

          k =-0.3000 0.3000 0.3000 (   968 PWs)   bands (ev):

    -8.0669  -7.9983  -7.9983  -7.9319  -7.9319  -4.9939   1.8607   5.9418
     5.9418   8.0873  11.4645  11.4645  13.5681

          k =-0.3125 0.3125 0.3125 (   968 PWs)   bands (ev):

    -8.0696  -7.9976  -7.9976  -7.9317  -7.9317  -4.9242   1.6804   5.9064
     5.9064   8.0527  11.4730  11.4730  13.7613

          k =-0.3250 0.3250 0.3250 (   968 PWs)   bands (ev):

    -8.0722  -7.9970  -7.9970  -7.9314  -7.9314  -4.8540   1.5064   5.8728
     5.8728   8.0195  11.4775  11.4775  13.9440

          k =-0.3375 0.3375 0.3375 (   968 PWs)   bands (ev):

    -8.0747  -7.9965  -7.9965  -7.9312  -7.9312  -4.7840   1.3393   5.8411
     5.8411   7.9879  11.4785  11.4785  14.1113

          k =-0.3500 0.3500 0.3500 (   968 PWs)   bands (ev):

    -8.0770  -7.9959  -7.9959  -7.9309  -7.9309  -4.7145   1.1798   5.8116
     5.8116   7.9583  11.4767  11.4767  14.2574

          k =-0.3625 0.3625 0.3625 (   972 PWs)   bands (ev):

    -8.0792  -7.9955  -7.9955  -7.9306  -7.9306  -4.6463   1.0283   5.7841
     5.7841   7.9305  11.4727  11.4727  14.3769

          k =-0.3750 0.3750 0.3750 (   972 PWs)   bands (ev):

    -8.0812  -7.9950  -7.9950  -7.9303  -7.9303  -4.5798   0.8858   5.7589
     5.7589   7.9049  11.4670  11.4670  14.4671

          k =-0.3875 0.3875 0.3875 (   984 PWs)   bands (ev):

    -8.0831  -7.9947  -7.9947  -7.9301  -7.9301  -4.5159   0.7528   5.7359
     5.7359   7.8815  11.4602  11.4602  14.5295

          k =-0.4000 0.4000 0.4000 (   966 PWs)   bands (ev):

    -8.0848  -7.9943  -7.9943  -7.9298  -7.9298  -4.4553   0.6304   5.7152
     5.7152   7.8607  11.4530  11.4530  14.5690

          k =-0.4125 0.4125 0.4125 (   972 PWs)   bands (ev):

    -8.0863  -7.9940  -7.9940  -7.9296  -7.9296  -4.3989   0.5192   5.6969
     5.6969   7.8419  11.4455  11.4455  14.5916

          k =-0.4250 0.4250 0.4250 (   972 PWs)   bands (ev):

    -8.0876  -7.9938  -7.9938  -7.9294  -7.9294  -4.3475   0.4203   5.6809
[...]

    -8.1056  -7.9841  -7.9719  -7.9416  -7.9287  -3.6007   0.2633   3.0740
     4.2088  10.5022  11.2141  12.8756  14.0454

          k =-0.5000 0.1375 0.8625 (   980 PWs)   bands (ev):

    -8.1062  -7.9838  -7.9711  -7.9420  -7.9286  -3.5717   0.2516   3.0536
     4.1284  10.5822  11.2696  12.7793  13.9101

          k =-0.5000 0.1250 0.8750 (   976 PWs)   bands (ev):

    -8.1068  -7.9834  -7.9704  -7.9424  -7.9286  -3.5441   0.2386   3.0418
     4.0487  10.6619  11.3283  12.6824  13.7767

          k =-0.5000 0.1125 0.8875 (   978 PWs)   bands (ev):

    -8.1074  -7.9831  -7.9698  -7.9427  -7.9285  -3.5180   0.2246   3.0382
     3.9699  10.7414  11.3889  12.5866  13.6459

          k =-0.5000 0.1000 0.9000 (   976 PWs)   bands (ev):

    -8.1079  -7.9828  -7.9692  -7.9430  -7.9284  -3.4936   0.2102   3.0425
     3.8925  10.8210  11.4498  12.4940  13.5186

          k =-0.5000 0.0875 0.9125 (   978 PWs)   bands (ev):

    -8.1084  -7.9825  -7.9688  -7.9433  -7.9284  -3.4714   0.1958   3.0542
     3.8167  10.9007  11.5084  12.4071  13.3956

          k =-0.5000 0.0750 0.9250 (   976 PWs)   bands (ev):

    -8.1088  -7.9822  -7.9683  -7.9435  -7.9283  -3.4515   0.1821   3.0727
     3.7431  10.9807  11.5608  12.3294  13.2779

          k =-0.5000 0.0625 0.9375 (   974 PWs)   bands (ev):

    -8.1092  -7.9820  -7.9680  -7.9437  -7.9283  -3.4342   0.1695   3.0973
     3.6722  11.0609  11.6010  12.2660  13.1670

          k =-0.5000 0.0500 0.9500 (   974 PWs)   bands (ev):

    -8.1095  -7.9818  -7.9677  -7.9439  -7.9282  -3.4197   0.1584   3.1272
     3.6046  11.1410  11.6217  12.2229  13.0647

          k =-0.5000 0.0375 0.9625 (   974 PWs)   bands (ev):

    -8.1097  -7.9817  -7.9675  -7.9440  -7.9282  -3.4082   0.1494   3.1609
     3.5417  11.2203  11.6169  12.2039  12.9745

          k =-0.5000 0.0250 0.9750 (   974 PWs)   bands (ev):

    -8.1099  -7.9816  -7.9673  -7.9441  -7.9282  -3.3999   0.1427   3.1961
     3.4859  11.2974  11.5871  12.2049  12.9012

          k =-0.5000 0.0125 0.9875 (   982 PWs)   bands (ev):

    -8.1100  -7.9815  -7.9673  -7.9441  -7.9282  -3.3949   0.1385   3.2268
     3.4428  11.3675  11.5417  12.2143  12.8518

          k =-0.5000 0.0000 1.0000 (   992 PWs)   bands (ev):

    -8.1100  -7.9815  -7.9672  -7.9441  -7.9281  -3.3932   0.1371   3.2404
     3.4250  11.4062  11.5104  12.2193  12.8340

          k =-0.5062 0.0000 0.9937 (   986 PWs)   bands (ev):

    -8.1100  -7.9815  -7.9672  -7.9441  -7.9281  -3.3934   0.1372   3.2387
     3.4277  11.3950  11.5103  12.2264  12.8397

          k =-0.5125 0.0000 0.9875 (   980 PWs)   bands (ev):

    -8.1100  -7.9815  -7.9672  -7.9441  -7.9281  -3.3941   0.1375   3.2339
     3.4356  11.3592  11.5135  12.2474  12.8554

          k =-0.5188 0.0000 0.9813 (   978 PWs)   bands (ev):

    -8.1100  -7.9815  -7.9673  -7.9442  -7.9281  -3.3951   0.1378   3.2261
     3.4483  11.3023  11.5195  12.2807  12.8795

          k =-0.5250 0.0000 0.9750 (   978 PWs)   bands (ev):

    -8.1100  -7.9814  -7.9673  -7.9442  -7.9281  -3.3966   0.1383   3.2162
     3.4652  11.2307  11.5259  12.3239  12.9107

          k =-0.5312 0.0000 0.9688 (   978 PWs)   bands (ev):

    -8.1101  -7.9814  -7.9673  -7.9442  -7.9280  -3.3984   0.1388   3.2047
     3.4856  11.1491  11.5314  12.3746  12.9480

          k =-0.5375 0.0000 0.9625 (   978 PWs)   bands (ev):

    -8.1101  -7.9813  -7.9673  -7.9443  -7.9280  -3.4005   0.1393   3.1922
     3.5089  11.0608  11.5355  12.4309  12.9903

          k =-0.5437 0.0000 0.9562 (   978 PWs)   bands (ev):

    -8.1101  -7.9812  -7.9674  -7.9444  -7.9279  -3.4029   0.1399   3.1790
     3.5347  10.9681  11.5381  12.4916  13.0371

          k =-0.5500 0.0000 0.9500 (   974 PWs)   bands (ev):

    -8.1101  -7.9812  -7.9674  -7.9444  -7.9278  -3.4055   0.1405   3.1655
     3.5626  10.8725  11.5392  12.5556  13.0877

          k =-0.5563 0.0000 0.9438 (   974 PWs)   bands (ev):

    -8.1102  -7.9811  -7.9675  -7.9445  -7.9278  -3.4083   0.1410   3.1518
     3.5924  10.7750  11.5390  12.6222  13.1415

          k =-0.5625 0.0000 0.9375 (   974 PWs)   bands (ev):

    -8.1102  -7.9810  -7.9675  -7.9446  -7.9277  -3.4114   0.1415   3.1382
     3.6238  10.6766  11.5377  12.6909  13.1980

          k =-0.5687 0.0000 0.9312 (   974 PWs)   bands (ev):

    -8.1102  -7.9808  -7.9676  -7.9447  -7.9276  -3.4146   0.1420   3.1246
     3.6567  10.5778  11.5354  12.7614  13.2569

          k =-0.5750 0.0000 0.9250 (   980 PWs)   bands (ev):

    -8.1103  -7.9807  -7.9676  -7.9448  -7.9275  -3.4179   0.1424   3.1113
     3.6908  10.4790  11.5322  12.8334  13.3178

          k =-0.5813 0.0000 0.9188 (   978 PWs)   bands (ev):

    -8.1103  -7.9806  -7.9677  -7.9449  -7.9274  -3.4214   0.1427   3.0982
     3.7262  10.3808  11.5284  12.9067  13.3805

          k =-0.5875 0.0000 0.9125 (   978 PWs)   bands (ev):

    -8.1104  -7.9805  -7.9678  -7.9450  -7.9273  -3.4249   0.1430   3.0854
     3.7626  10.2834  11.5240  12.9810  13.4446

          k =-0.5938 0.0000 0.9062 (   980 PWs)   bands (ev):

    -8.1104  -7.9803  -7.9678  -7.9451  -7.9272  -3.4286   0.1432   3.0729
     3.7998  10.1871  11.5192  13.0563  13.5099

          k =-0.6000 0.0000 0.9000 (   980 PWs)   bands (ev):

    -8.1105  -7.9801  -7.9679  -7.9452  -7.9271  -3.4322   0.1434   3.0608
     3.8378  10.0921  11.5140  13.1325  13.5761

          k =-0.6062 0.0000 0.8937 (   980 PWs)   bands (ev):

    -8.1106  -7.9800  -7.9680  -7.9453  -7.9270  -3.4359   0.1435   3.0491
     3.8764   9.9987  11.5087  13.2095  13.6432

          k =-0.6125 0.0000 0.8875 (   984 PWs)   bands (ev):

    -8.1106  -7.9798  -7.9681  -7.9454  -7.9269  -3.4395   0.1435   3.0378
     3.9154   9.9070  11.5031  13.2871  13.7106

          k =-0.6188 0.0000 0.8813 (   984 PWs)   bands (ev):

    -8.1107  -7.9796  -7.9682  -7.9455  -7.9268  -3.4432   0.1434   3.0270
     3.9548   9.8173  11.4975  13.3653  13.7785

          k =-0.6250 0.0000 0.8750 (   984 PWs)   bands (ev):

    -8.1107  -7.9795  -7.9683  -7.9456  -7.9267  -3.4467   0.1434   3.0166
     3.9943   9.7297  11.4918  13.4442  13.8465

          k =-0.6312 0.0000 0.8687 (   984 PWs)   bands (ev):

    -8.1108  -7.9793  -7.9684  -7.9457  -7.9266  -3.4503   0.1432   3.0066
     4.0337   9.6445  11.4862  13.5234  13.9144

          k =-0.6375 0.0000 0.8625 (   984 PWs)   bands (ev):

    -8.1109  -7.9791  -7.9685  -7.9458  -7.9265  -3.4537   0.1430   2.9971
     4.0730   9.5618  11.4807  13.6031  13.9820

          k =-0.6438 0.0000 0.8563 (   982 PWs)   bands (ev):

    -8.1109  -7.9789  -7.9686  -7.9460  -7.9264  -3.4571   0.1428   2.9881
     4.1118   9.4819  11.4753  13.6832  14.0491

          k =-0.6500 0.0000 0.8500 (   982 PWs)   bands (ev):

    -8.1110  -7.9787  -7.9687  -7.9461  -7.9263  -3.4603   0.1425   2.9795
     4.1501   9.4049  11.4700  13.7635  14.1154

          k =-0.6562 0.0000 0.8438 (   982 PWs)   bands (ev):

    -8.1111  -7.9785  -7.9688  -7.9462  -7.9263  -3.4634   0.1422   2.9715
     4.1877   9.3310  11.4649  13.8441  14.1807

          k =-0.6625 0.0000 0.8375 (   982 PWs)   bands (ev):

    -8.1111  -7.9783  -7.9689  -7.9463  -7.9262  -3.4664   0.1419   2.9639
     4.2243   9.2604  11.4601  13.9247  14.2447

          k =-0.6687 0.0000 0.8312 (   982 PWs)   bands (ev):

    -8.1112  -7.9782  -7.9690  -7.9464  -7.9261  -3.4692   0.1416   2.9569
     4.2597   9.1934  11.4555  14.0054  14.3071

          k =-0.6750 0.0000 0.8250 (   982 PWs)   bands (ev):

    -8.1112  -7.9780  -7.9690  -7.9464  -7.9260  -3.4719   0.1413   2.9503
     4.2937   9.1301  11.4511  14.0859  14.3676

          k =-0.6813 0.0000 0.8188 (   978 PWs)   bands (ev):

    -8.1113  -7.9778  -7.9691  -7.9465  -7.9259  -3.4743   0.1410   2.9443
     4.3260   9.0709  11.4471  14.1662  14.4259

          k =-0.6875 0.0000 0.8125 (   980 PWs)   bands (ev):

    -8.1113  -7.9776  -7.9692  -7.9466  -7.9259  -3.4766   0.1406   2.9388
     4.3566   9.0157  11.4433  14.2459  14.4815

          k =-0.6937 0.0000 0.8062 (   979 PWs)   bands (ev):

    -8.1114  -7.9775  -7.9693  -7.9467  -7.9258  -3.4787   0.1403   2.9337
     4.3851   8.9651  11.4399  14.3249  14.5342

          k =-0.7000 0.0000 0.8000 (   979 PWs)   bands (ev):

    -8.1114  -7.9773  -7.9694  -7.9467  -7.9258  -3.4806   0.1400   2.9292
     4.4113   8.9190  11.4368  14.4026  14.5836

          k =-0.7063 0.0000 0.7938 (   979 PWs)   bands (ev):

    -8.1115  -7.9772  -7.9695  -7.9468  -7.9257  -3.4823   0.1398   2.9253
     4.4350   8.8778  11.4340  14.4784  14.6293

          k =-0.7125 0.0000 0.7875 (   979 PWs)   bands (ev):

    -8.1115  -7.9771  -7.9696  -7.9469  -7.9257  -3.4838   0.1395   2.9218
     4.4560   8.8416  11.4316  14.5513  14.6714

          k =-0.7188 0.0000 0.7812 (   977 PWs)   bands (ev):

    -8.1115  -7.9770  -7.9696  -7.9469  -7.9256  -3.4851   0.1393   2.9189
     4.4741   8.8106  11.4295  14.6191  14.7103

          k =-0.7250 0.0000 0.7750 (   977 PWs)   bands (ev):

    -8.1116  -7.9769  -7.9697  -7.9469  -7.9256  -3.4861   0.1391   2.9165
     4.4892   8.7851  11.4278  14.6777  14.7481

          k =-0.7312 0.0000 0.7687 (   977 PWs)   bands (ev):

    -8.1116  -7.9768  -7.9697  -7.9470  -7.9256  -3.4869   0.1390   2.9147
     4.5011   8.7650  11.4265  14.7211  14.7881

          k =-0.7375 0.0000 0.7625 (   977 PWs)   bands (ev):

    -8.1116  -7.9768  -7.9698  -7.9470  -7.9256  -3.4875   0.1389   2.9133
     4.5097   8.7506  11.4255  14.7479  14.8273

          k =-0.7438 0.0000 0.7563 (   977 PWs)   bands (ev):

    -8.1116  -7.9767  -7.9698  -7.9470  -7.9255  -3.4879   0.1388   2.9125
     4.5149   8.7419  11.4250  14.7622  14.8564

          k =-0.7500 0.0000 0.7500 (   977 PWs)   bands (ev):

    -8.1116  -7.9767  -7.9698  -7.9470  -7.9255  -3.4880   0.1388   2.9123
     4.5166   8.7390  11.4248  14.7667  14.8671

          k =-0.7312 0.0000 0.7312 (   973 PWs)   bands (ev):

    -8.1102  -7.9780  -7.9708  -7.9457  -7.9264  -3.5114   0.1695   2.8605
     4.5789   8.7984  11.7543  14.6257  14.6612

          k =-0.7125 0.0000 0.7125 (   973 PWs)   bands (ev):

    -8.1087  -7.9792  -7.9719  -7.9444  -7.9272  -3.5410   0.2045   2.8245
     4.6448   8.8602  12.0686  14.4579  14.5133

          k =-0.6937 0.0000 0.6937 (   981 PWs)   bands (ev):

    -8.1072  -7.9804  -7.9730  -7.9430  -7.9280  -3.5772   0.2445   2.8044
     4.7139   8.9242  12.3518  14.2575  14.4417

          k =-0.6750 0.0000 0.6750 (   981 PWs)   bands (ev):

    -8.1057  -7.9815  -7.9742  -7.9417  -7.9288  -3.6204   0.2906   2.8002
     4.7862   8.9898  12.5813  14.0609  14.4045

          k =-0.6562 0.0000 0.6562 (   981 PWs)   bands (ev):

    -8.1041  -7.9826  -7.9755  -7.9405  -7.9296  -3.6706   0.3436   2.8115
     4.8613   9.0562  12.7341  13.8682  14.2594

          k =-0.6375 0.0000 0.6375 (   981 PWs)   bands (ev):

    -8.1025  -7.9836  -7.9768  -7.9392  -7.9303  -3.7278   0.4042   2.8377
     4.9391   9.1229  12.8037  13.6800  14.0499

          k =-0.6188 0.0000 0.6188 (   981 PWs)   bands (ev):

    -8.1009  -7.9845  -7.9781  -7.9380  -7.9311  -3.7917   0.4733   2.8780
     5.0190   9.1888  12.8064  13.4964  13.8375

          k =-0.6000 0.0000 0.6000 (   975 PWs)   bands (ev):

    -8.0991  -7.9853  -7.9794  -7.9369  -7.9318  -3.8619   0.5513   2.9316
     5.1010   9.2530  12.7675  13.3177  13.6291

          k =-0.5813 0.0000 0.5813 (   983 PWs)   bands (ev):

    -8.0973  -7.9861  -7.9808  -7.9359  -7.9324  -3.9378   0.6386   2.9978
     5.1846   9.3142  12.7068  13.1439  13.4262

          k =-0.5625 0.0000 0.5625 (   977 PWs)   bands (ev):

    -8.0954  -7.9869  -7.9822  -7.9349  -7.9330  -4.0187   0.7356   3.0755
     5.2694   9.3714  12.6375  12.9755  13.2300

          k =-0.5437 0.0000 0.5437 (   971 PWs)   bands (ev):

    -8.0934  -7.9876  -7.9837  -7.9341  -7.9336  -4.1040   0.8422   3.1641
     5.3552   9.4231  12.5667  12.8125  13.0416

          k =-0.5250 0.0000 0.5250 (   975 PWs)   bands (ev):

    -8.0913  -7.9882  -7.9851  -7.9341  -7.9333  -4.1928   0.9586   3.2627
     5.4414   9.4679  12.4977  12.6547  12.8630

          k =-0.5062 0.0000 0.5062 (   975 PWs)   bands (ev):

    -8.0891  -7.9889  -7.9866  -7.9346  -7.9327  -4.2844   1.0845   3.3705
     5.5277   9.5045  12.4290  12.5026  12.6997

          k =-0.4875 0.0000 0.4875 (   983 PWs)   bands (ev):

    -8.0867  -7.9896  -7.9880  -7.9350  -7.9321  -4.3779   1.2199   3.4868
     5.6136   9.5316  12.3484  12.3561  12.5657

          k =-0.4688 0.0000 0.4688 (   983 PWs)   bands (ev):

    -8.0842  -7.9902  -7.9895  -7.9353  -7.9316  -4.4727   1.3645   3.6109
     5.6988   9.5485  12.2152  12.2375  12.4809

          k =-0.4500 0.0000 0.4500 (   979 PWs)   bands (ev):

    -8.0815  -7.9909  -7.9909  -7.9356  -7.9313  -4.5680   1.5181   3.7423
     5.7827   9.5545  12.0801  12.1022  12.4396

          k =-0.4312 0.0000 0.4313 (   979 PWs)   bands (ev):

    -8.0787  -7.9924  -7.9917  -7.9358  -7.9310  -4.6632   1.6804   3.8801
     5.8650   9.5496  11.9506  11.9597  12.4234

          k =-0.4125 0.0000 0.4125 (   973 PWs)   bands (ev):

    -8.0757  -7.9938  -7.9924  -7.9360  -7.9309  -4.7577   1.8511   4.0239
     5.9451   9.5342  11.8186  11.8268  12.4221

          k =-0.3937 0.0000 0.3937 (   969 PWs)   bands (ev):

    -8.0725  -7.9952  -7.9932  -7.9361  -7.9308  -4.8509   2.0299   4.1730
     6.0228   9.5088  11.6820  11.7087  12.4296

          k =-0.3750 0.0000 0.3750 (   969 PWs)   bands (ev):

    -8.0693  -7.9966  -7.9941  -7.9362  -7.9307  -4.9424   2.2166   4.3266
     6.0975   9.4744  11.5512  11.5963  12.4407

          k =-0.3562 0.0000 0.3562 (   971 PWs)   bands (ev):

    -8.0658  -7.9980  -7.9951  -7.9362  -7.9308  -5.0317   2.4108   4.4842
     6.1690   9.4321  11.4269  11.4896  12.4499

          k =-0.3375 0.0000 0.3375 (   975 PWs)   bands (ev):

    -8.0623  -7.9993  -7.9960  -7.9361  -7.9309  -5.1184   2.6123   4.6449
     6.2369   9.3828  11.3097  11.3884  12.4512

          k =-0.3187 0.0000 0.3187 (   975 PWs)   bands (ev):

    -8.0587  -8.0006  -7.9971  -7.9361  -7.9310  -5.2021   2.8207   4.8081
     6.3010   9.3276  11.1999  11.2929  12.4386

          k =-0.3000 0.0000 0.3000 (   963 PWs)   bands (ev):

    -8.0549  -8.0018  -7.9982  -7.9359  -7.9312  -5.2826   3.0358   4.9729
     6.3610   9.2670  11.0978  11.2031  12.4059

          k =-0.2812 0.0000 0.2812 (   959 PWs)   bands (ev):

    -8.0512  -8.0030  -7.9994  -7.9358  -7.9314  -5.3594   3.2573   5.1383
     6.4169   9.2015  11.0035  11.1188  12.3479

          k =-0.2625 0.0000 0.2625 (   963 PWs)   bands (ev):

    -8.0474  -8.0041  -8.0006  -7.9356  -7.9316  -5.4324   3.4848   5.3032
     6.4683   9.1312  10.9174  11.0399  12.2614

          k =-0.2437 0.0000 0.2437 (   963 PWs)   bands (ev):

    -8.0436  -8.0052  -8.0018  -7.9354  -7.9318  -5.5014   3.7180   5.4667
     6.5155   9.0560  10.8395  10.9666  12.1462

          k =-0.2250 0.0000 0.2250 (   957 PWs)   bands (ev):

    -8.0398  -8.0062  -8.0030  -7.9352  -7.9320  -5.5660   3.9565   5.6275
     6.5583   8.9754  10.7703  10.8988  12.0051

          k =-0.2062 0.0000 0.2062 (   961 PWs)   bands (ev):

    -8.0361  -8.0072  -8.0042  -7.9350  -7.9322  -5.6262   4.1999   5.7840
     6.5969   8.8883  10.7096  10.8363  11.8433

          k =-0.1875 0.0000 0.1875 (   961 PWs)   bands (ev):

    -8.0326  -8.0081  -8.0055  -7.9348  -7.9324  -5.6816   4.4476   5.9350
     6.6313   8.7934  10.6576  10.7794  11.6677

          k =-0.1687 0.0000 0.1687 (   963 PWs)   bands (ev):

    -8.0292  -8.0089  -8.0066  -7.9346  -7.9326  -5.7323   4.6993   6.0787
     6.6616   8.6891  10.6144  10.7279  11.4858

          k =-0.1500 0.0000 0.1500 (   953 PWs)   bands (ev):

    -8.0260  -8.0096  -8.0077  -7.9343  -7.9327  -5.7780   4.9541   6.2135
     6.6881   8.5733  10.5797  10.6818  11.3053

          k =-0.1312 0.0000 0.1312 (   953 PWs)   bands (ev):

    -8.0230  -8.0103  -8.0088  -7.9342  -7.9329  -5.8187   5.2112   6.3377
     6.7109   8.4442  10.5530  10.6412  11.1328

          k =-0.1125 0.0000 0.1125 (   951 PWs)   bands (ev):

    -8.0204  -8.0109  -8.0097  -7.9340  -7.9330  -5.8541   5.4697   6.4496
     6.7302   8.3000  10.5337  10.6059  10.9746

          k =-0.0938 0.0000 0.0938 (   951 PWs)   bands (ev):

    -8.0181  -8.0114  -8.0105  -7.9338  -7.9331  -5.8843   5.7282   6.5474
     6.7462   8.1399  10.5209  10.5761  10.8353

          k =-0.0750 0.0000 0.0750 (   947 PWs)   bands (ev):

    -8.0161  -8.0118  -8.0112  -7.9337  -7.9332  -5.9090   5.9846   6.6298
     6.7591   7.9644  10.5133  10.5518  10.7187

          k =-0.0562 0.0000 0.0562 (   947 PWs)   bands (ev):

    -8.0146  -8.0121  -8.0118  -7.9336  -7.9333  -5.9284   6.2358   6.6952
     6.7689   7.7759  10.5096  10.5328  10.6269

          k =-0.0375 0.0000 0.0375 (   945 PWs)   bands (ev):

    -8.0134  -8.0123  -8.0122  -7.9335  -7.9334  -5.9422   6.4748   6.7428
     6.7758   7.5813  10.5084  10.5192  10.5610

          k =-0.0187 0.0000 0.0187 (   941 PWs)   bands (ev):

    -8.0127  -8.0124  -8.0124  -7.9334  -7.9334  -5.9506   6.6814   6.7716
     6.7799   7.4011  10.5083  10.5111  10.5216

          k = 0.0000 0.0000 0.0000 (   941 PWs)   bands (ev):

    -8.0125  -8.0125  -8.0125  -7.9334  -7.9334  -5.9533   6.7813   6.7813
     6.7813   7.3099  10.5084  10.5084  10.5084

     Writing all to output data dir ./SCRATCH/gallium_arsenide.save/

     init_run     :      0.33s CPU      0.38s WALL (       1 calls)
     electrons    :     21.33s CPU     21.91s WALL (       1 calls)

     Called by init_run:
     wfcinit      :      0.00s CPU      0.00s WALL (       1 calls)
     wfcinit:atom :      0.00s CPU      0.04s WALL (     201 calls)
     wfcinit:wfcr :      1.05s CPU      1.22s WALL (     201 calls)
     potinit      :      0.02s CPU      0.02s WALL (       1 calls)
     hinit0       :      0.28s CPU      0.29s WALL (       1 calls)

     Called by electrons:
     c_bands      :     21.33s CPU     21.91s WALL (       1 calls)
     v_of_rho     :      0.02s CPU      0.02s WALL (       1 calls)
     v_h          :      0.02s CPU      0.00s WALL (       1 calls)
     v_xc         :      0.00s CPU      0.02s WALL (       1 calls)
     newd         :      0.02s CPU      0.06s WALL (       1 calls)

     Called by c_bands:
     init_us_2    :      0.00s CPU      0.04s WALL (     201 calls)
     init_us_2:cp :      0.00s CPU      0.04s WALL (     201 calls)
     cegterg      :     20.03s CPU     20.37s WALL (     297 calls)

     Called by sum_band:

     Called by *egterg:
     cdiaghg      :      0.61s CPU      0.59s WALL (    4328 calls)
     cegterg:over :      1.44s CPU      1.57s WALL (    4127 calls)
     cegterg:upda :      0.53s CPU      0.68s WALL (    4127 calls)
     cegterg:last :      1.77s CPU      1.88s WALL (    2677 calls)
     h_psi        :     15.55s CPU     15.59s WALL (    4625 calls)
     s_psi        :      0.75s CPU      0.77s WALL (    4625 calls)
     g_psi        :      0.09s CPU      0.09s WALL (    4127 calls)

     Called by h_psi:
     h_psi:calbec :      0.89s CPU      1.02s WALL (    4625 calls)
     vloc_psi     :     13.83s CPU     13.71s WALL (    4625 calls)
     add_vuspsi   :      0.78s CPU      0.77s WALL (    4625 calls)

     General routines
     calbec       :      0.89s CPU      1.01s WALL (    4625 calls)
     fft          :      0.02s CPU      0.01s WALL (      13 calls)
     ffts         :      0.00s CPU      0.00s WALL (       1 calls)
     fftw         :     12.31s CPU     12.27s WALL (   76978 calls)
     interpolate  :      0.00s CPU      0.00s WALL (       1 calls)
     davcio       :      0.00s CPU      0.03s WALL (     402 calls)


     PWSCF        :     21.78s CPU     22.47s WALL


   This run was terminated on:  12: 4:58  11Jun2024            

=------------------------------------------------------------------------------=
   JOB DONE.
=------------------------------------------------------------------------------=
