
     Program PWSCF v.7.2 starts on  9Jun2024 at 11:55:59 

     This program is part of the open-source Quantum ESPRESSO suite
     for quantum simulation of materials; please cite
         "P. Giannozzi et al., J. Phys.:Condens. Matter 21 395502 (2009);
         "P. Giannozzi et al., J. Phys.:Condens. Matter 29 465901 (2017);
         "P. Giannozzi et al., J. Chem. Phys. 152 154105 (2020);
          URL http://www.quantum-espresso.org", 
     in publications or presentations arising from this work. More details at
     http://www.quantum-espresso.org/quote

     Serial version
     8268 MiB available memory on the printing compute node when the environment starts

     Waiting for input...
     Reading input from standard input

     Current dimensions of program PWSCF are:
     Max number of different atomic species (ntypx) = 10
     Max number of k-points (npk) =  40000
     Max angular momentum in pseudopotentials (lmaxx) =  4

     Atomic positions and unit cell read from directory:
     ./SCRATCH/gallium_arsenide.save/



     G-vector sticks info
     --------------------
     sticks:   dense  smooth     PW     G-vecs:    dense   smooth      PW
     Sum         967     967    301                20107    20107    3383

     Using Slab Decomposition



     bravais-lattice index     =            2
     lattice parameter (alat)  =      10.8645  a.u.
     unit-cell volume          =     320.6041 (a.u.)^3
     number of atoms/cell      =            2
     number of atomic types    =            2
     number of electrons       =        18.00
     number of Kohn-Sham states=           13
     kinetic-energy cutoff     =      60.0000  Ry
     charge density cutoff     =     240.0000  Ry
     Exchange-correlation= PBE
                           (   1   4   3   4   0   0   0)

     celldm(1)=  10.864499  celldm(2)=   0.000000  celldm(3)=   0.000000
     celldm(4)=   0.000000  celldm(5)=   0.000000  celldm(6)=   0.000000

     crystal axes: (cart. coord. in units of alat)
               a(1) = (  -0.500000   0.000000   0.500000 )  
               a(2) = (   0.000000   0.500000   0.500000 )  
               a(3) = (  -0.500000   0.500000   0.000000 )  

     reciprocal axes: (cart. coord. in units 2 pi/alat)
               b(1) = ( -1.000000 -1.000000  1.000000 )  
               b(2) = (  1.000000  1.000000  1.000000 )  
               b(3) = ( -1.000000  1.000000 -1.000000 )  


     PseudoPot. # 1 for Ga read from file:
     /home/paolo/project_labqsm/pseudopotentials/Ga_ONCV_PBE-1.2.upf
     MD5 check sum: 9961a622ff199abf6dfec9a0a10b8555
     Pseudo is Norm-conserving, Zval = 13.0
     Generated using ONCVPSP code by D. R. Hamann
     Using radial grid of  602 points,  6 beta functions with: 
                l(1) =   0
                l(2) =   0
                l(3) =   1
                l(4) =   1
                l(5) =   2
                l(6) =   2

     PseudoPot. # 2 for As read from file:
     /home/paolo/project_labqsm/pseudopotentials/As_ONCV_PBE-1.2.upf
     MD5 check sum: a2ff92a4799c87c945fff9e6739df4dd
     Pseudo is Norm-conserving, Zval =  5.0
     Generated using ONCVPSP code by D. R. Hamann
     Using radial grid of  602 points,  6 beta functions with: 
                l(1) =   0
                l(2) =   0
                l(3) =   1
                l(4) =   1
                l(5) =   2
                l(6) =   2

     atomic species   valence    mass     pseudopotential
        Ga            13.00    69.72300     Ga( 1.00)
        As             5.00    74.92200     As( 1.00)

     24 Sym. Ops. (no inversion) found


                                    s                        frac. trans.

      isym =  1     identity                                     

 cryst.   s( 1) = (     1          0          0      )
                  (     0          1          0      )
                  (     0          0          1      )

 cart.    s( 1) = (  1.0000000  0.0000000  0.0000000 )
                  (  0.0000000  1.0000000  0.0000000 )
                  (  0.0000000  0.0000000  1.0000000 )


      isym =  2     180 deg rotation - cart. axis [0,0,1]        

 cryst.   s( 2) = (     0          1         -1      )
                  (     1          0         -1      )
                  (     0          0         -1      )

 cart.    s( 2) = ( -1.0000000  0.0000000  0.0000000 )
                  (  0.0000000 -1.0000000  0.0000000 )
                  (  0.0000000  0.0000000  1.0000000 )


      isym =  3     180 deg rotation - cart. axis [0,1,0]        

 cryst.   s( 3) = (    -1          0          0      )
                  (    -1          0          1      )
                  (    -1          1          0      )

 cart.    s( 3) = ( -1.0000000  0.0000000  0.0000000 )
                  (  0.0000000  1.0000000  0.0000000 )
                  (  0.0000000  0.0000000 -1.0000000 )


      isym =  4     180 deg rotation - cart. axis [1,0,0]        

 cryst.   s( 4) = (     0         -1          1      )
                  (     0         -1          0      )
                  (     1         -1          0      )

 cart.    s( 4) = (  1.0000000  0.0000000  0.0000000 )
                  (  0.0000000 -1.0000000  0.0000000 )
                  (  0.0000000  0.0000000 -1.0000000 )


      isym =  5     120 deg rotation - cart. axis [-1,-1,-1]     

 cryst.   s( 5) = (    -1          0          1      )
                  (    -1          1          0      )
                  (    -1          0          0      )

 cart.    s( 5) = (  0.0000000  1.0000000  0.0000000 )
                  (  0.0000000  0.0000000  1.0000000 )
                  (  1.0000000  0.0000000  0.0000000 )


      isym =  6     120 deg rotation - cart. axis [-1,1,1]       

 cryst.   s( 6) = (     0          1          0      )
                  (     0          0          1      )
                  (     1          0          0      )

 cart.    s( 6) = (  0.0000000 -1.0000000  0.0000000 )
                  (  0.0000000  0.0000000  1.0000000 )
                  ( -1.0000000  0.0000000  0.0000000 )


      isym =  7     120 deg rotation - cart. axis [1,1,-1]       

 cryst.   s( 7) = (     1          0         -1      )
                  (     0          0         -1      )
                  (     0          1         -1      )

 cart.    s( 7) = (  0.0000000  1.0000000  0.0000000 )
                  (  0.0000000  0.0000000 -1.0000000 )
                  ( -1.0000000  0.0000000  0.0000000 )


      isym =  8     120 deg rotation - cart. axis [1,-1,1]       

 cryst.   s( 8) = (     0         -1          0      )
                  (     1         -1          0      )
                  (     0         -1          1      )

 cart.    s( 8) = (  0.0000000 -1.0000000  0.0000000 )
                  (  0.0000000  0.0000000 -1.0000000 )
                  (  1.0000000  0.0000000  0.0000000 )


      isym =  9     120 deg rotation - cart. axis [1,1,1]        

 cryst.   s( 9) = (     0          0         -1      )
                  (     0          1         -1      )
                  (     1          0         -1      )

 cart.    s( 9) = (  0.0000000  0.0000000  1.0000000 )
                  (  1.0000000  0.0000000  0.0000000 )
                  (  0.0000000  1.0000000  0.0000000 )


      isym = 10     120 deg rotation - cart. axis [-1,1,-1]      

 cryst.   s(10) = (    -1          1          0      )
                  (    -1          0          0      )
                  (    -1          0          1      )

 cart.    s(10) = (  0.0000000  0.0000000  1.0000000 )
                  ( -1.0000000  0.0000000  0.0000000 )
                  (  0.0000000 -1.0000000  0.0000000 )


      isym = 11     120 deg rotation - cart. axis [1,-1,-1]      

 cryst.   s(11) = (     0          0          1      )
                  (     1          0          0      )
                  (     0          1          0      )

 cart.    s(11) = (  0.0000000  0.0000000 -1.0000000 )
                  ( -1.0000000  0.0000000  0.0000000 )
                  (  0.0000000  1.0000000  0.0000000 )


      isym = 12     120 deg rotation - cart. axis [-1,-1,1]      

 cryst.   s(12) = (     1         -1          0      )
                  (     0         -1          1      )
                  (     0         -1          0      )

 cart.    s(12) = (  0.0000000  0.0000000 -1.0000000 )
                  (  1.0000000  0.0000000  0.0000000 )
                  (  0.0000000 -1.0000000  0.0000000 )


      isym = 13     inv. 180 deg rotation - cart. axis [1,1,0]   

 cryst.   s(13) = (     0          1          0      )
                  (     1          0          0      )
                  (     0          0          1      )

 cart.    s(13) = (  0.0000000 -1.0000000  0.0000000 )
                  ( -1.0000000  0.0000000  0.0000000 )
                  (  0.0000000  0.0000000  1.0000000 )


      isym = 14     inv. 180 deg rotation - cart. axis [1,-1,0]  

 cryst.   s(14) = (     1          0         -1      )
                  (     0          1         -1      )
                  (     0          0         -1      )

 cart.    s(14) = (  0.0000000  1.0000000  0.0000000 )
                  (  1.0000000  0.0000000  0.0000000 )
                  (  0.0000000  0.0000000  1.0000000 )


      isym = 15     inv.  90 deg rotation - cart. axis [0,0,-1]  

 cryst.   s(15) = (     0         -1          0      )
                  (     0         -1          1      )
                  (     1         -1          0      )

 cart.    s(15) = (  0.0000000 -1.0000000  0.0000000 )
                  (  1.0000000  0.0000000  0.0000000 )
                  (  0.0000000  0.0000000 -1.0000000 )


      isym = 16     inv.  90 deg rotation - cart. axis [0,0,1]   

 cryst.   s(16) = (    -1          0          1      )
                  (    -1          0          0      )
                  (    -1          1          0      )

 cart.    s(16) = (  0.0000000  1.0000000  0.0000000 )
                  ( -1.0000000  0.0000000  0.0000000 )
                  (  0.0000000  0.0000000 -1.0000000 )


      isym = 17     inv. 180 deg rotation - cart. axis [1,0,1]   

 cryst.   s(17) = (     1          0          0      )
                  (     0          0          1      )
                  (     0          1          0      )

 cart.    s(17) = (  0.0000000  0.0000000 -1.0000000 )
                  (  0.0000000  1.0000000  0.0000000 )
                  ( -1.0000000  0.0000000  0.0000000 )


      isym = 18     inv. 180 deg rotation - cart. axis [-1,0,1]  

 cryst.   s(18) = (    -1          0          0      )
                  (    -1          1          0      )
                  (    -1          0          1      )

 cart.    s(18) = (  0.0000000  0.0000000  1.0000000 )
                  (  0.0000000  1.0000000  0.0000000 )
                  (  1.0000000  0.0000000  0.0000000 )


      isym = 19     inv.  90 deg rotation - cart. axis [0,1,0]   

 cryst.   s(19) = (     0         -1          1      )
                  (     1         -1          0      )
                  (     0         -1          0      )

 cart.    s(19) = (  0.0000000  0.0000000 -1.0000000 )
                  (  0.0000000 -1.0000000  0.0000000 )
                  (  1.0000000  0.0000000  0.0000000 )


      isym = 20     inv.  90 deg rotation - cart. axis [0,-1,0]  

 cryst.   s(20) = (     0          1         -1      )
                  (     0          0         -1      )
                  (     1          0         -1      )

 cart.    s(20) = (  0.0000000  0.0000000  1.0000000 )
                  (  0.0000000 -1.0000000  0.0000000 )
                  ( -1.0000000  0.0000000  0.0000000 )


      isym = 21     inv. 180 deg rotation - cart. axis [0,1,1]   

 cryst.   s(21) = (     1         -1          0      )
                  (     0         -1          0      )
                  (     0         -1          1      )

 cart.    s(21) = (  1.0000000  0.0000000  0.0000000 )
                  (  0.0000000  0.0000000 -1.0000000 )
                  (  0.0000000 -1.0000000  0.0000000 )


      isym = 22     inv. 180 deg rotation - cart. axis [0,1,-1]  

 cryst.   s(22) = (     0          0          1      )
                  (     0          1          0      )
                  (     1          0          0      )

 cart.    s(22) = (  1.0000000  0.0000000  0.0000000 )
                  (  0.0000000  0.0000000  1.0000000 )
                  (  0.0000000  1.0000000  0.0000000 )


      isym = 23     inv.  90 deg rotation - cart. axis [-1,0,0]  

 cryst.   s(23) = (     0          0         -1      )
                  (     1          0         -1      )
                  (     0          1         -1      )

 cart.    s(23) = ( -1.0000000  0.0000000  0.0000000 )
                  (  0.0000000  0.0000000 -1.0000000 )
                  (  0.0000000  1.0000000  0.0000000 )


      isym = 24     inv.  90 deg rotation - cart. axis [1,0,0]   

 cryst.   s(24) = (    -1          1          0      )
                  (    -1          0          1      )
                  (    -1          0          0      )

 cart.    s(24) = ( -1.0000000  0.0000000  0.0000000 )
                  (  0.0000000  0.0000000  1.0000000 )
                  (  0.0000000 -1.0000000  0.0000000 )


     point group T_d (-43m) 
     there are  5 classes
     the character table:

       E     8C3   3C2   6S4   6s_d 
A_1    1.00  1.00  1.00  1.00  1.00
A_2    1.00  1.00  1.00 -1.00 -1.00
E      2.00 -1.00  2.00  0.00  0.00
T_1    3.00  0.00 -1.00  1.00 -1.00
T_2    3.00  0.00 -1.00 -1.00  1.00

     the symmetry operations in each class and the name of the first element:

     E        1
          identity                                               
     8C3      5    7    8    6   12    9   10   11
          120 deg rotation - cart. axis [-1,-1,-1]               
     3C2      2    3    4
          180 deg rotation - cart. axis [0,0,1]                  
     6S4     15   16   20   19   23   24
          inv.  90 deg rotation - cart. axis [0,0,-1]            
     6s_d    13   14   17   18   21   22
          inv. 180 deg rotation - cart. axis [1,1,0]             

   Cartesian axes

     site n.     atom                  positions (alat units)
         1           Ga  tau(   1) = (   0.0000000   0.0000000   0.0000000  )
         2           As  tau(   2) = (   0.2500000   0.2500000   0.2500000  )

   Crystallographic axes

     site n.     atom                  positions (cryst. coord.)
         1           Ga  tau(   1) = (  0.0000000  0.0000000  0.0000000  )
         2           As  tau(   2) = ( -0.2500000  0.7500000 -0.2500000  )

     number of k points=   256
                       cart. coord. in units 2pi/alat
        k(    1) = (   0.0000000   0.0000000   0.0000000), wk =   0.0002500
        k(    2) = (  -0.0500000   0.0500000  -0.0500000), wk =   0.0020000
        k(    3) = (  -0.1000000   0.1000000  -0.1000000), wk =   0.0020000
        k(    4) = (  -0.1500000   0.1500000  -0.1500000), wk =   0.0020000
        k(    5) = (  -0.2000000   0.2000000  -0.2000000), wk =   0.0020000
        k(    6) = (  -0.2500000   0.2500000  -0.2500000), wk =   0.0020000
        k(    7) = (  -0.3000000   0.3000000  -0.3000000), wk =   0.0020000
        k(    8) = (  -0.3500000   0.3500000  -0.3500000), wk =   0.0020000
        k(    9) = (  -0.4000000   0.4000000  -0.4000000), wk =   0.0020000
        k(   10) = (  -0.4500000   0.4500000  -0.4500000), wk =   0.0020000
        k(   11) = (   0.5000000  -0.5000000   0.5000000), wk =   0.0010000
        k(   12) = (   0.0000000   0.1000000   0.0000000), wk =   0.0015000
        k(   13) = (  -0.0500000   0.1500000  -0.0500000), wk =   0.0060000
        k(   14) = (  -0.1000000   0.2000000  -0.1000000), wk =   0.0060000
        k(   15) = (  -0.1500000   0.2500000  -0.1500000), wk =   0.0060000
        k(   16) = (  -0.2000000   0.3000000  -0.2000000), wk =   0.0060000
        k(   17) = (  -0.2500000   0.3500000  -0.2500000), wk =   0.0060000
        k(   18) = (  -0.3000000   0.4000000  -0.3000000), wk =   0.0060000
        k(   19) = (  -0.3500000   0.4500000  -0.3500000), wk =   0.0060000
        k(   20) = (  -0.4000000   0.5000000  -0.4000000), wk =   0.0060000
        k(   21) = (   0.5500000  -0.4500000   0.5500000), wk =   0.0060000
        k(   22) = (   0.5000000  -0.4000000   0.5000000), wk =   0.0060000
        k(   23) = (   0.4500000  -0.3500000   0.4500000), wk =   0.0060000
        k(   24) = (   0.4000000  -0.3000000   0.4000000), wk =   0.0060000
        k(   25) = (   0.3500000  -0.2500000   0.3500000), wk =   0.0060000
        k(   26) = (   0.3000000  -0.2000000   0.3000000), wk =   0.0060000
        k(   27) = (   0.2500000  -0.1500000   0.2500000), wk =   0.0060000
        k(   28) = (   0.2000000  -0.1000000   0.2000000), wk =   0.0060000
        k(   29) = (   0.1500000  -0.0500000   0.1500000), wk =   0.0060000
        k(   30) = (   0.1000000  -0.0000000   0.1000000), wk =   0.0030000
        k(   31) = (   0.0000000   0.2000000   0.0000000), wk =   0.0015000
        k(   32) = (  -0.0500000   0.2500000  -0.0500000), wk =   0.0060000
        k(   33) = (  -0.1000000   0.3000000  -0.1000000), wk =   0.0060000
        k(   34) = (  -0.1500000   0.3500000  -0.1500000), wk =   0.0060000
        k(   35) = (  -0.2000000   0.4000000  -0.2000000), wk =   0.0060000
        k(   36) = (  -0.2500000   0.4500000  -0.2500000), wk =   0.0060000
        k(   37) = (  -0.3000000   0.5000000  -0.3000000), wk =   0.0060000
        k(   38) = (  -0.3500000   0.5500000  -0.3500000), wk =   0.0060000
        k(   39) = (   0.6000000  -0.4000000   0.6000000), wk =   0.0060000
        k(   40) = (   0.5500000  -0.3500000   0.5500000), wk =   0.0060000
        k(   41) = (   0.5000000  -0.3000000   0.5000000), wk =   0.0060000
        k(   42) = (   0.4500000  -0.2500000   0.4500000), wk =   0.0060000
        k(   43) = (   0.4000000  -0.2000000   0.4000000), wk =   0.0060000
        k(   44) = (   0.3500000  -0.1500000   0.3500000), wk =   0.0060000
        k(   45) = (   0.3000000  -0.1000000   0.3000000), wk =   0.0060000
        k(   46) = (   0.2500000  -0.0500000   0.2500000), wk =   0.0060000
        k(   47) = (   0.2000000   0.0000000   0.2000000), wk =   0.0030000
        k(   48) = (   0.0000000   0.3000000   0.0000000), wk =   0.0015000
        k(   49) = (  -0.0500000   0.3500000  -0.0500000), wk =   0.0060000
        k(   50) = (  -0.1000000   0.4000000  -0.1000000), wk =   0.0060000
        k(   51) = (  -0.1500000   0.4500000  -0.1500000), wk =   0.0060000
        k(   52) = (  -0.2000000   0.5000000  -0.2000000), wk =   0.0060000
        k(   53) = (  -0.2500000   0.5500000  -0.2500000), wk =   0.0060000
        k(   54) = (  -0.3000000   0.6000000  -0.3000000), wk =   0.0060000
        k(   55) = (   0.6500000  -0.3500000   0.6500000), wk =   0.0060000
        k(   56) = (   0.6000000  -0.3000000   0.6000000), wk =   0.0060000
        k(   57) = (   0.5500000  -0.2500000   0.5500000), wk =   0.0060000
        k(   58) = (   0.5000000  -0.2000000   0.5000000), wk =   0.0060000
        k(   59) = (   0.4500000  -0.1500000   0.4500000), wk =   0.0060000
        k(   60) = (   0.4000000  -0.1000000   0.4000000), wk =   0.0060000
        k(   61) = (   0.3500000  -0.0500000   0.3500000), wk =   0.0060000
        k(   62) = (   0.3000000  -0.0000000   0.3000000), wk =   0.0030000
        k(   63) = (   0.0000000   0.4000000   0.0000000), wk =   0.0015000
        k(   64) = (  -0.0500000   0.4500000  -0.0500000), wk =   0.0060000
        k(   65) = (  -0.1000000   0.5000000  -0.1000000), wk =   0.0060000
        k(   66) = (  -0.1500000   0.5500000  -0.1500000), wk =   0.0060000
        k(   67) = (  -0.2000000   0.6000000  -0.2000000), wk =   0.0060000
        k(   68) = (  -0.2500000   0.6500000  -0.2500000), wk =   0.0060000
        k(   69) = (   0.7000000  -0.3000000   0.7000000), wk =   0.0060000
        k(   70) = (   0.6500000  -0.2500000   0.6500000), wk =   0.0060000
        k(   71) = (   0.6000000  -0.2000000   0.6000000), wk =   0.0060000
        k(   72) = (   0.5500000  -0.1500000   0.5500000), wk =   0.0060000
        k(   73) = (   0.5000000  -0.1000000   0.5000000), wk =   0.0060000
        k(   74) = (   0.4500000  -0.0500000   0.4500000), wk =   0.0060000
        k(   75) = (   0.4000000   0.0000000   0.4000000), wk =   0.0030000
        k(   76) = (   0.0000000   0.5000000   0.0000000), wk =   0.0015000
        k(   77) = (  -0.0500000   0.5500000  -0.0500000), wk =   0.0060000
        k(   78) = (  -0.1000000   0.6000000  -0.1000000), wk =   0.0060000
        k(   79) = (  -0.1500000   0.6500000  -0.1500000), wk =   0.0060000
        k(   80) = (  -0.2000000   0.7000000  -0.2000000), wk =   0.0060000
        k(   81) = (   0.7500000  -0.2500000   0.7500000), wk =   0.0060000
        k(   82) = (   0.7000000  -0.2000000   0.7000000), wk =   0.0060000
        k(   83) = (   0.6500000  -0.1500000   0.6500000), wk =   0.0060000
        k(   84) = (   0.6000000  -0.1000000   0.6000000), wk =   0.0060000
        k(   85) = (   0.5500000  -0.0500000   0.5500000), wk =   0.0060000
        k(   86) = (   0.5000000   0.0000000   0.5000000), wk =   0.0030000
        k(   87) = (   0.0000000   0.6000000   0.0000000), wk =   0.0015000
        k(   88) = (  -0.0500000   0.6500000  -0.0500000), wk =   0.0060000
        k(   89) = (  -0.1000000   0.7000000  -0.1000000), wk =   0.0060000
        k(   90) = (  -0.1500000   0.7500000  -0.1500000), wk =   0.0060000
        k(   91) = (   0.8000000  -0.2000000   0.8000000), wk =   0.0060000
        k(   92) = (   0.7500000  -0.1500000   0.7500000), wk =   0.0060000
        k(   93) = (   0.7000000  -0.1000000   0.7000000), wk =   0.0060000
        k(   94) = (   0.6500000  -0.0500000   0.6500000), wk =   0.0060000
        k(   95) = (   0.6000000  -0.0000000   0.6000000), wk =   0.0030000
        k(   96) = (   0.0000000   0.7000000   0.0000000), wk =   0.0015000
        k(   97) = (  -0.0500000   0.7500000  -0.0500000), wk =   0.0060000
        k(   98) = (  -0.1000000   0.8000000  -0.1000000), wk =   0.0060000
        k(   99) = (   0.8500000  -0.1500000   0.8500000), wk =   0.0060000
        k(  100) = (   0.8000000  -0.1000000   0.8000000), wk =   0.0060000
        k(  101) = (   0.7500000  -0.0500000   0.7500000), wk =   0.0060000
        k(  102) = (   0.7000000   0.0000000   0.7000000), wk =   0.0030000
        k(  103) = (   0.0000000   0.8000000   0.0000000), wk =   0.0015000
        k(  104) = (  -0.0500000   0.8500000  -0.0500000), wk =   0.0060000
        k(  105) = (   0.9000000  -0.1000000   0.9000000), wk =   0.0060000
        k(  106) = (   0.8500000  -0.0500000   0.8500000), wk =   0.0060000
        k(  107) = (   0.8000000   0.0000000   0.8000000), wk =   0.0030000
        k(  108) = (   0.0000000   0.9000000   0.0000000), wk =   0.0015000
        k(  109) = (   0.9500000  -0.0500000   0.9500000), wk =   0.0060000
        k(  110) = (   0.9000000   0.0000000   0.9000000), wk =   0.0030000
        k(  111) = (   0.0000000  -1.0000000   0.0000000), wk =   0.0007500
        k(  112) = (  -0.1000000   0.2000000   0.0000000), wk =   0.0060000
        k(  113) = (  -0.1500000   0.2500000  -0.0500000), wk =   0.0120000
        k(  114) = (  -0.2000000   0.3000000  -0.1000000), wk =   0.0120000
        k(  115) = (  -0.2500000   0.3500000  -0.1500000), wk =   0.0120000
        k(  116) = (  -0.3000000   0.4000000  -0.2000000), wk =   0.0120000
        k(  117) = (  -0.3500000   0.4500000  -0.2500000), wk =   0.0120000
        k(  118) = (  -0.4000000   0.5000000  -0.3000000), wk =   0.0120000
        k(  119) = (   0.5500000  -0.4500000   0.6500000), wk =   0.0120000
        k(  120) = (   0.5000000  -0.4000000   0.6000000), wk =   0.0060000
        k(  121) = (  -0.1000000   0.3000000   0.0000000), wk =   0.0060000
        k(  122) = (  -0.1500000   0.3500000  -0.0500000), wk =   0.0120000
        k(  123) = (  -0.2000000   0.4000000  -0.1000000), wk =   0.0120000
        k(  124) = (  -0.2500000   0.4500000  -0.1500000), wk =   0.0120000
        k(  125) = (  -0.3000000   0.5000000  -0.2000000), wk =   0.0120000
        k(  126) = (  -0.3500000   0.5500000  -0.2500000), wk =   0.0120000
        k(  127) = (   0.6000000  -0.4000000   0.7000000), wk =   0.0120000
        k(  128) = (   0.5500000  -0.3500000   0.6500000), wk =   0.0120000
        k(  129) = (   0.5000000  -0.3000000   0.6000000), wk =   0.0120000
        k(  130) = (   0.4500000  -0.2500000   0.5500000), wk =   0.0120000
        k(  131) = (   0.4000000  -0.2000000   0.5000000), wk =   0.0120000
        k(  132) = (   0.3500000  -0.1500000   0.4500000), wk =   0.0120000
        k(  133) = (   0.3000000  -0.1000000   0.4000000), wk =   0.0120000
        k(  134) = (   0.2500000  -0.0500000   0.3500000), wk =   0.0120000
        k(  135) = (   0.2000000   0.0000000   0.3000000), wk =   0.0060000
        k(  136) = (  -0.1000000   0.4000000   0.0000000), wk =   0.0060000
        k(  137) = (  -0.1500000   0.4500000  -0.0500000), wk =   0.0120000
        k(  138) = (  -0.2000000   0.5000000  -0.1000000), wk =   0.0120000
        k(  139) = (  -0.2500000   0.5500000  -0.1500000), wk =   0.0120000
        k(  140) = (  -0.3000000   0.6000000  -0.2000000), wk =   0.0120000
        k(  141) = (   0.6500000  -0.3500000   0.7500000), wk =   0.0120000
        k(  142) = (   0.6000000  -0.3000000   0.7000000), wk =   0.0120000
        k(  143) = (   0.5500000  -0.2500000   0.6500000), wk =   0.0120000
        k(  144) = (   0.5000000  -0.2000000   0.6000000), wk =   0.0120000
        k(  145) = (   0.4500000  -0.1500000   0.5500000), wk =   0.0120000
        k(  146) = (   0.4000000  -0.1000000   0.5000000), wk =   0.0120000
        k(  147) = (   0.3500000  -0.0500000   0.4500000), wk =   0.0120000
        k(  148) = (   0.3000000   0.0000000   0.4000000), wk =   0.0060000
        k(  149) = (  -0.1000000   0.5000000   0.0000000), wk =   0.0060000
        k(  150) = (  -0.1500000   0.5500000  -0.0500000), wk =   0.0120000
        k(  151) = (  -0.2000000   0.6000000  -0.1000000), wk =   0.0120000
        k(  152) = (  -0.2500000   0.6500000  -0.1500000), wk =   0.0120000
        k(  153) = (   0.7000000  -0.3000000   0.8000000), wk =   0.0120000
        k(  154) = (   0.6500000  -0.2500000   0.7500000), wk =   0.0120000
        k(  155) = (   0.6000000  -0.2000000   0.7000000), wk =   0.0120000
        k(  156) = (   0.5500000  -0.1500000   0.6500000), wk =   0.0120000
        k(  157) = (   0.5000000  -0.1000000   0.6000000), wk =   0.0120000
        k(  158) = (   0.4500000  -0.0500000   0.5500000), wk =   0.0120000
        k(  159) = (   0.4000000   0.0000000   0.5000000), wk =   0.0060000
        k(  160) = (  -0.1000000   0.6000000   0.0000000), wk =   0.0060000
        k(  161) = (  -0.1500000   0.6500000  -0.0500000), wk =   0.0120000
        k(  162) = (  -0.2000000   0.7000000  -0.1000000), wk =   0.0120000
        k(  163) = (   0.7500000  -0.2500000   0.8500000), wk =   0.0120000
        k(  164) = (   0.7000000  -0.2000000   0.8000000), wk =   0.0120000
        k(  165) = (   0.6500000  -0.1500000   0.7500000), wk =   0.0120000
        k(  166) = (   0.6000000  -0.1000000   0.7000000), wk =   0.0120000
        k(  167) = (   0.5500000  -0.0500000   0.6500000), wk =   0.0120000
        k(  168) = (   0.5000000   0.0000000   0.6000000), wk =   0.0060000
        k(  169) = (  -0.1000000   0.7000000  -0.0000000), wk =   0.0060000
        k(  170) = (  -0.1500000   0.7500000  -0.0500000), wk =   0.0120000
        k(  171) = (   0.8000000  -0.2000000   0.9000000), wk =   0.0120000
        k(  172) = (   0.7500000  -0.1500000   0.8500000), wk =   0.0120000
        k(  173) = (   0.7000000  -0.1000000   0.8000000), wk =   0.0120000
        k(  174) = (   0.6500000  -0.0500000   0.7500000), wk =   0.0120000
        k(  175) = (   0.6000000  -0.0000000   0.7000000), wk =   0.0060000
        k(  176) = (  -0.1000000   0.8000000   0.0000000), wk =   0.0060000
        k(  177) = (   0.8500000  -0.1500000   0.9500000), wk =   0.0120000
        k(  178) = (   0.8000000  -0.1000000   0.9000000), wk =   0.0120000
        k(  179) = (   0.7500000  -0.0500000   0.8500000), wk =   0.0120000
        k(  180) = (   0.7000000   0.0000000   0.8000000), wk =   0.0060000
        k(  181) = (   0.9000000  -0.1000000   1.0000000), wk =   0.0060000
        k(  182) = (   0.8500000  -0.0500000   0.9500000), wk =   0.0120000
        k(  183) = (   0.8000000   0.0000000   0.9000000), wk =   0.0060000
        k(  184) = (  -0.1000000  -1.0000000  -0.0000000), wk =   0.0030000
        k(  185) = (  -0.2000000   0.4000000   0.0000000), wk =   0.0060000
        k(  186) = (  -0.2500000   0.4500000  -0.0500000), wk =   0.0120000
        k(  187) = (  -0.3000000   0.5000000  -0.1000000), wk =   0.0120000
        k(  188) = (  -0.3500000   0.5500000  -0.1500000), wk =   0.0120000
        k(  189) = (   0.6000000  -0.4000000   0.8000000), wk =   0.0120000
        k(  190) = (   0.5500000  -0.3500000   0.7500000), wk =   0.0120000
        k(  191) = (   0.5000000  -0.3000000   0.7000000), wk =   0.0060000
        k(  192) = (  -0.2000000   0.5000000   0.0000000), wk =   0.0060000
        k(  193) = (  -0.2500000   0.5500000  -0.0500000), wk =   0.0120000
        k(  194) = (  -0.3000000   0.6000000  -0.1000000), wk =   0.0120000
        k(  195) = (   0.6500000  -0.3500000   0.8500000), wk =   0.0120000
        k(  196) = (   0.6000000  -0.3000000   0.8000000), wk =   0.0120000
        k(  197) = (   0.5500000  -0.2500000   0.7500000), wk =   0.0120000
        k(  198) = (   0.5000000  -0.2000000   0.7000000), wk =   0.0120000
        k(  199) = (   0.4500000  -0.1500000   0.6500000), wk =   0.0120000
        k(  200) = (   0.4000000  -0.1000000   0.6000000), wk =   0.0120000
        k(  201) = (   0.3500000  -0.0500000   0.5500000), wk =   0.0120000
        k(  202) = (   0.3000000  -0.0000000   0.5000000), wk =   0.0060000
        k(  203) = (  -0.2000000   0.6000000   0.0000000), wk =   0.0060000
        k(  204) = (  -0.2500000   0.6500000  -0.0500000), wk =   0.0120000
        k(  205) = (   0.7000000  -0.3000000   0.9000000), wk =   0.0120000
        k(  206) = (   0.6500000  -0.2500000   0.8500000), wk =   0.0120000
        k(  207) = (   0.6000000  -0.2000000   0.8000000), wk =   0.0120000
        k(  208) = (   0.5500000  -0.1500000   0.7500000), wk =   0.0120000
        k(  209) = (   0.5000000  -0.1000000   0.7000000), wk =   0.0120000
        k(  210) = (   0.4500000  -0.0500000   0.6500000), wk =   0.0120000
        k(  211) = (   0.4000000   0.0000000   0.6000000), wk =   0.0060000
        k(  212) = (  -0.2000000   0.7000000  -0.0000000), wk =   0.0060000
        k(  213) = (   0.7500000  -0.2500000   0.9500000), wk =   0.0120000
        k(  214) = (   0.7000000  -0.2000000   0.9000000), wk =   0.0120000
        k(  215) = (   0.6500000  -0.1500000   0.8500000), wk =   0.0120000
        k(  216) = (   0.6000000  -0.1000000   0.8000000), wk =   0.0120000
        k(  217) = (   0.5500000  -0.0500000   0.7500000), wk =   0.0120000
        k(  218) = (   0.5000000  -0.0000000   0.7000000), wk =   0.0060000
        k(  219) = (   0.8000000  -0.2000000   1.0000000), wk =   0.0060000
        k(  220) = (   0.7500000  -0.1500000   0.9500000), wk =   0.0120000
        k(  221) = (   0.7000000  -0.1000000   0.9000000), wk =   0.0120000
        k(  222) = (   0.6500000  -0.0500000   0.8500000), wk =   0.0120000
        k(  223) = (   0.6000000   0.0000000   0.8000000), wk =   0.0060000
        k(  224) = (   0.8000000  -0.1000000   1.0000000), wk =   0.0060000
        k(  225) = (   0.7500000  -0.0500000   0.9500000), wk =   0.0120000
        k(  226) = (   0.7000000   0.0000000   0.9000000), wk =   0.0060000
        k(  227) = (  -0.2000000  -1.0000000   0.0000000), wk =   0.0030000
        k(  228) = (  -0.3000000   0.6000000  -0.0000000), wk =   0.0060000
        k(  229) = (   0.6500000  -0.3500000   0.9500000), wk =   0.0120000
        k(  230) = (   0.6000000  -0.3000000   0.9000000), wk =   0.0120000
        k(  231) = (   0.5500000  -0.2500000   0.8500000), wk =   0.0120000
        k(  232) = (   0.5000000  -0.2000000   0.8000000), wk =   0.0060000
        k(  233) = (   0.7000000  -0.3000000   1.0000000), wk =   0.0060000
        k(  234) = (   0.6500000  -0.2500000   0.9500000), wk =   0.0120000
        k(  235) = (   0.6000000  -0.2000000   0.9000000), wk =   0.0120000
        k(  236) = (   0.5500000  -0.1500000   0.8500000), wk =   0.0120000
        k(  237) = (   0.5000000  -0.1000000   0.8000000), wk =   0.0120000
        k(  238) = (   0.4500000  -0.0500000   0.7500000), wk =   0.0120000
        k(  239) = (   0.4000000   0.0000000   0.7000000), wk =   0.0060000
        k(  240) = (   0.7000000  -0.2000000   1.0000000), wk =   0.0060000
        k(  241) = (   0.6500000  -0.1500000   0.9500000), wk =   0.0120000
        k(  242) = (   0.6000000  -0.1000000   0.9000000), wk =   0.0120000
        k(  243) = (   0.5500000  -0.0500000   0.8500000), wk =   0.0120000
        k(  244) = (   0.5000000   0.0000000   0.8000000), wk =   0.0060000
        k(  245) = (   0.7000000  -0.1000000   1.0000000), wk =   0.0060000
        k(  246) = (   0.6500000  -0.0500000   0.9500000), wk =   0.0120000
        k(  247) = (   0.6000000   0.0000000   0.9000000), wk =   0.0060000
        k(  248) = (  -0.3000000  -1.0000000   0.0000000), wk =   0.0030000
        k(  249) = (   0.6000000  -0.2000000   1.0000000), wk =   0.0060000
        k(  250) = (   0.5500000  -0.1500000   0.9500000), wk =   0.0120000
        k(  251) = (   0.5000000  -0.1000000   0.9000000), wk =   0.0060000
        k(  252) = (   0.6000000  -0.1000000   1.0000000), wk =   0.0060000
        k(  253) = (   0.5500000  -0.0500000   0.9500000), wk =   0.0120000
        k(  254) = (   0.5000000   0.0000000   0.9000000), wk =   0.0060000
        k(  255) = (  -0.4000000  -1.0000000   0.0000000), wk =   0.0030000
        k(  256) = (  -0.5000000  -1.0000000   0.0000000), wk =   0.0015000

                       cryst. coord.
        k(    1) = (   0.0000000   0.0000000   0.0000000), wk =   0.0002500
        k(    2) = (   0.0000000   0.0000000   0.0500000), wk =   0.0020000
        k(    3) = (   0.0000000   0.0000000   0.1000000), wk =   0.0020000
        k(    4) = (   0.0000000   0.0000000   0.1500000), wk =   0.0020000
        k(    5) = (   0.0000000   0.0000000   0.2000000), wk =   0.0020000
        k(    6) = (   0.0000000   0.0000000   0.2500000), wk =   0.0020000
        k(    7) = (   0.0000000   0.0000000   0.3000000), wk =   0.0020000
        k(    8) = (   0.0000000   0.0000000   0.3500000), wk =   0.0020000
        k(    9) = (   0.0000000   0.0000000   0.4000000), wk =   0.0020000
        k(   10) = (   0.0000000   0.0000000   0.4500000), wk =   0.0020000
        k(   11) = (   0.0000000   0.0000000  -0.5000000), wk =   0.0010000
        k(   12) = (   0.0000000   0.0500000   0.0500000), wk =   0.0015000
        k(   13) = (   0.0000000   0.0500000   0.1000000), wk =   0.0060000
        k(   14) = (   0.0000000   0.0500000   0.1500000), wk =   0.0060000
        k(   15) = (   0.0000000   0.0500000   0.2000000), wk =   0.0060000
        k(   16) = (   0.0000000   0.0500000   0.2500000), wk =   0.0060000
        k(   17) = (   0.0000000   0.0500000   0.3000000), wk =   0.0060000
        k(   18) = (   0.0000000   0.0500000   0.3500000), wk =   0.0060000
        k(   19) = (   0.0000000   0.0500000   0.4000000), wk =   0.0060000
        k(   20) = (   0.0000000   0.0500000   0.4500000), wk =   0.0060000
        k(   21) = (   0.0000000   0.0500000  -0.5000000), wk =   0.0060000
        k(   22) = (   0.0000000   0.0500000  -0.4500000), wk =   0.0060000
        k(   23) = (   0.0000000   0.0500000  -0.4000000), wk =   0.0060000
        k(   24) = (   0.0000000   0.0500000  -0.3500000), wk =   0.0060000
        k(   25) = (   0.0000000   0.0500000  -0.3000000), wk =   0.0060000
        k(   26) = (   0.0000000   0.0500000  -0.2500000), wk =   0.0060000
        k(   27) = (   0.0000000   0.0500000  -0.2000000), wk =   0.0060000
        k(   28) = (   0.0000000   0.0500000  -0.1500000), wk =   0.0060000
        k(   29) = (   0.0000000   0.0500000  -0.1000000), wk =   0.0060000
        k(   30) = (   0.0000000   0.0500000  -0.0500000), wk =   0.0030000
        k(   31) = (   0.0000000   0.1000000   0.1000000), wk =   0.0015000
        k(   32) = (   0.0000000   0.1000000   0.1500000), wk =   0.0060000
        k(   33) = (   0.0000000   0.1000000   0.2000000), wk =   0.0060000
        k(   34) = (   0.0000000   0.1000000   0.2500000), wk =   0.0060000
        k(   35) = (   0.0000000   0.1000000   0.3000000), wk =   0.0060000
        k(   36) = (   0.0000000   0.1000000   0.3500000), wk =   0.0060000
        k(   37) = (   0.0000000   0.1000000   0.4000000), wk =   0.0060000
        k(   38) = (   0.0000000   0.1000000   0.4500000), wk =   0.0060000
        k(   39) = (   0.0000000   0.1000000  -0.5000000), wk =   0.0060000
        k(   40) = (   0.0000000   0.1000000  -0.4500000), wk =   0.0060000
        k(   41) = (   0.0000000   0.1000000  -0.4000000), wk =   0.0060000
        k(   42) = (   0.0000000   0.1000000  -0.3500000), wk =   0.0060000
        k(   43) = (   0.0000000   0.1000000  -0.3000000), wk =   0.0060000
        k(   44) = (   0.0000000   0.1000000  -0.2500000), wk =   0.0060000
        k(   45) = (   0.0000000   0.1000000  -0.2000000), wk =   0.0060000
        k(   46) = (   0.0000000   0.1000000  -0.1500000), wk =   0.0060000
        k(   47) = (   0.0000000   0.1000000  -0.1000000), wk =   0.0030000
        k(   48) = (   0.0000000   0.1500000   0.1500000), wk =   0.0015000
        k(   49) = (   0.0000000   0.1500000   0.2000000), wk =   0.0060000
        k(   50) = (   0.0000000   0.1500000   0.2500000), wk =   0.0060000
        k(   51) = (   0.0000000   0.1500000   0.3000000), wk =   0.0060000
        k(   52) = (   0.0000000   0.1500000   0.3500000), wk =   0.0060000
        k(   53) = (   0.0000000   0.1500000   0.4000000), wk =   0.0060000
        k(   54) = (   0.0000000   0.1500000   0.4500000), wk =   0.0060000
        k(   55) = (   0.0000000   0.1500000  -0.5000000), wk =   0.0060000
        k(   56) = (   0.0000000   0.1500000  -0.4500000), wk =   0.0060000
        k(   57) = (   0.0000000   0.1500000  -0.4000000), wk =   0.0060000
        k(   58) = (   0.0000000   0.1500000  -0.3500000), wk =   0.0060000
        k(   59) = (   0.0000000   0.1500000  -0.3000000), wk =   0.0060000
        k(   60) = (   0.0000000   0.1500000  -0.2500000), wk =   0.0060000
        k(   61) = (   0.0000000   0.1500000  -0.2000000), wk =   0.0060000
        k(   62) = (   0.0000000   0.1500000  -0.1500000), wk =   0.0030000
        k(   63) = (   0.0000000   0.2000000   0.2000000), wk =   0.0015000
        k(   64) = (   0.0000000   0.2000000   0.2500000), wk =   0.0060000
        k(   65) = (   0.0000000   0.2000000   0.3000000), wk =   0.0060000
        k(   66) = (   0.0000000   0.2000000   0.3500000), wk =   0.0060000
        k(   67) = (   0.0000000   0.2000000   0.4000000), wk =   0.0060000
        k(   68) = (   0.0000000   0.2000000   0.4500000), wk =   0.0060000
        k(   69) = (   0.0000000   0.2000000  -0.5000000), wk =   0.0060000
        k(   70) = (   0.0000000   0.2000000  -0.4500000), wk =   0.0060000
        k(   71) = (   0.0000000   0.2000000  -0.4000000), wk =   0.0060000
        k(   72) = (   0.0000000   0.2000000  -0.3500000), wk =   0.0060000
        k(   73) = (   0.0000000   0.2000000  -0.3000000), wk =   0.0060000
        k(   74) = (   0.0000000   0.2000000  -0.2500000), wk =   0.0060000
        k(   75) = (   0.0000000   0.2000000  -0.2000000), wk =   0.0030000
        k(   76) = (   0.0000000   0.2500000   0.2500000), wk =   0.0015000
        k(   77) = (   0.0000000   0.2500000   0.3000000), wk =   0.0060000
        k(   78) = (   0.0000000   0.2500000   0.3500000), wk =   0.0060000
        k(   79) = (   0.0000000   0.2500000   0.4000000), wk =   0.0060000
        k(   80) = (   0.0000000   0.2500000   0.4500000), wk =   0.0060000
        k(   81) = (   0.0000000   0.2500000  -0.5000000), wk =   0.0060000
        k(   82) = (   0.0000000   0.2500000  -0.4500000), wk =   0.0060000
        k(   83) = (   0.0000000   0.2500000  -0.4000000), wk =   0.0060000
        k(   84) = (   0.0000000   0.2500000  -0.3500000), wk =   0.0060000
        k(   85) = (   0.0000000   0.2500000  -0.3000000), wk =   0.0060000
        k(   86) = (   0.0000000   0.2500000  -0.2500000), wk =   0.0030000
        k(   87) = (   0.0000000   0.3000000   0.3000000), wk =   0.0015000
        k(   88) = (   0.0000000   0.3000000   0.3500000), wk =   0.0060000
        k(   89) = (   0.0000000   0.3000000   0.4000000), wk =   0.0060000
        k(   90) = (   0.0000000   0.3000000   0.4500000), wk =   0.0060000
        k(   91) = (   0.0000000   0.3000000  -0.5000000), wk =   0.0060000
        k(   92) = (   0.0000000   0.3000000  -0.4500000), wk =   0.0060000
        k(   93) = (   0.0000000   0.3000000  -0.4000000), wk =   0.0060000
        k(   94) = (   0.0000000   0.3000000  -0.3500000), wk =   0.0060000
        k(   95) = (   0.0000000   0.3000000  -0.3000000), wk =   0.0030000
        k(   96) = (   0.0000000   0.3500000   0.3500000), wk =   0.0015000
        k(   97) = (   0.0000000   0.3500000   0.4000000), wk =   0.0060000
        k(   98) = (   0.0000000   0.3500000   0.4500000), wk =   0.0060000
        k(   99) = (   0.0000000   0.3500000  -0.5000000), wk =   0.0060000
        k(  100) = (   0.0000000   0.3500000  -0.4500000), wk =   0.0060000
        k(  101) = (   0.0000000   0.3500000  -0.4000000), wk =   0.0060000
        k(  102) = (   0.0000000   0.3500000  -0.3500000), wk =   0.0030000
        k(  103) = (   0.0000000   0.4000000   0.4000000), wk =   0.0015000
        k(  104) = (   0.0000000   0.4000000   0.4500000), wk =   0.0060000
        k(  105) = (   0.0000000   0.4000000  -0.5000000), wk =   0.0060000
        k(  106) = (   0.0000000   0.4000000  -0.4500000), wk =   0.0060000
        k(  107) = (   0.0000000   0.4000000  -0.4000000), wk =   0.0030000
        k(  108) = (   0.0000000   0.4500000   0.4500000), wk =   0.0015000
        k(  109) = (   0.0000000   0.4500000  -0.5000000), wk =   0.0060000
        k(  110) = (   0.0000000   0.4500000  -0.4500000), wk =   0.0030000
        k(  111) = (   0.0000000  -0.5000000  -0.5000000), wk =   0.0007500
        k(  112) = (   0.0500000   0.1000000   0.1500000), wk =   0.0060000
        k(  113) = (   0.0500000   0.1000000   0.2000000), wk =   0.0120000
        k(  114) = (   0.0500000   0.1000000   0.2500000), wk =   0.0120000
        k(  115) = (   0.0500000   0.1000000   0.3000000), wk =   0.0120000
        k(  116) = (   0.0500000   0.1000000   0.3500000), wk =   0.0120000
        k(  117) = (   0.0500000   0.1000000   0.4000000), wk =   0.0120000
        k(  118) = (   0.0500000   0.1000000   0.4500000), wk =   0.0120000
        k(  119) = (   0.0500000   0.1000000  -0.5000000), wk =   0.0120000
        k(  120) = (   0.0500000   0.1000000  -0.4500000), wk =   0.0060000
        k(  121) = (   0.0500000   0.1500000   0.2000000), wk =   0.0060000
        k(  122) = (   0.0500000   0.1500000   0.2500000), wk =   0.0120000
        k(  123) = (   0.0500000   0.1500000   0.3000000), wk =   0.0120000
        k(  124) = (   0.0500000   0.1500000   0.3500000), wk =   0.0120000
        k(  125) = (   0.0500000   0.1500000   0.4000000), wk =   0.0120000
        k(  126) = (   0.0500000   0.1500000   0.4500000), wk =   0.0120000
        k(  127) = (   0.0500000   0.1500000  -0.5000000), wk =   0.0120000
        k(  128) = (   0.0500000   0.1500000  -0.4500000), wk =   0.0120000
        k(  129) = (   0.0500000   0.1500000  -0.4000000), wk =   0.0120000
        k(  130) = (   0.0500000   0.1500000  -0.3500000), wk =   0.0120000
        k(  131) = (   0.0500000   0.1500000  -0.3000000), wk =   0.0120000
        k(  132) = (   0.0500000   0.1500000  -0.2500000), wk =   0.0120000
        k(  133) = (   0.0500000   0.1500000  -0.2000000), wk =   0.0120000
        k(  134) = (   0.0500000   0.1500000  -0.1500000), wk =   0.0120000
        k(  135) = (   0.0500000   0.1500000  -0.1000000), wk =   0.0060000
        k(  136) = (   0.0500000   0.2000000   0.2500000), wk =   0.0060000
        k(  137) = (   0.0500000   0.2000000   0.3000000), wk =   0.0120000
        k(  138) = (   0.0500000   0.2000000   0.3500000), wk =   0.0120000
        k(  139) = (   0.0500000   0.2000000   0.4000000), wk =   0.0120000
        k(  140) = (   0.0500000   0.2000000   0.4500000), wk =   0.0120000
        k(  141) = (   0.0500000   0.2000000  -0.5000000), wk =   0.0120000
        k(  142) = (   0.0500000   0.2000000  -0.4500000), wk =   0.0120000
        k(  143) = (   0.0500000   0.2000000  -0.4000000), wk =   0.0120000
        k(  144) = (   0.0500000   0.2000000  -0.3500000), wk =   0.0120000
        k(  145) = (   0.0500000   0.2000000  -0.3000000), wk =   0.0120000
        k(  146) = (   0.0500000   0.2000000  -0.2500000), wk =   0.0120000
        k(  147) = (   0.0500000   0.2000000  -0.2000000), wk =   0.0120000
        k(  148) = (   0.0500000   0.2000000  -0.1500000), wk =   0.0060000
        k(  149) = (   0.0500000   0.2500000   0.3000000), wk =   0.0060000
        k(  150) = (   0.0500000   0.2500000   0.3500000), wk =   0.0120000
        k(  151) = (   0.0500000   0.2500000   0.4000000), wk =   0.0120000
        k(  152) = (   0.0500000   0.2500000   0.4500000), wk =   0.0120000
        k(  153) = (   0.0500000   0.2500000  -0.5000000), wk =   0.0120000
        k(  154) = (   0.0500000   0.2500000  -0.4500000), wk =   0.0120000
        k(  155) = (   0.0500000   0.2500000  -0.4000000), wk =   0.0120000
        k(  156) = (   0.0500000   0.2500000  -0.3500000), wk =   0.0120000
        k(  157) = (   0.0500000   0.2500000  -0.3000000), wk =   0.0120000
        k(  158) = (   0.0500000   0.2500000  -0.2500000), wk =   0.0120000
        k(  159) = (   0.0500000   0.2500000  -0.2000000), wk =   0.0060000
        k(  160) = (   0.0500000   0.3000000   0.3500000), wk =   0.0060000
        k(  161) = (   0.0500000   0.3000000   0.4000000), wk =   0.0120000
        k(  162) = (   0.0500000   0.3000000   0.4500000), wk =   0.0120000
        k(  163) = (   0.0500000   0.3000000  -0.5000000), wk =   0.0120000
        k(  164) = (   0.0500000   0.3000000  -0.4500000), wk =   0.0120000
        k(  165) = (   0.0500000   0.3000000  -0.4000000), wk =   0.0120000
        k(  166) = (   0.0500000   0.3000000  -0.3500000), wk =   0.0120000
        k(  167) = (   0.0500000   0.3000000  -0.3000000), wk =   0.0120000
        k(  168) = (   0.0500000   0.3000000  -0.2500000), wk =   0.0060000
        k(  169) = (   0.0500000   0.3500000   0.4000000), wk =   0.0060000
        k(  170) = (   0.0500000   0.3500000   0.4500000), wk =   0.0120000
        k(  171) = (   0.0500000   0.3500000  -0.5000000), wk =   0.0120000
        k(  172) = (   0.0500000   0.3500000  -0.4500000), wk =   0.0120000
        k(  173) = (   0.0500000   0.3500000  -0.4000000), wk =   0.0120000
        k(  174) = (   0.0500000   0.3500000  -0.3500000), wk =   0.0120000
        k(  175) = (   0.0500000   0.3500000  -0.3000000), wk =   0.0060000
        k(  176) = (   0.0500000   0.4000000   0.4500000), wk =   0.0060000
        k(  177) = (   0.0500000   0.4000000  -0.5000000), wk =   0.0120000
        k(  178) = (   0.0500000   0.4000000  -0.4500000), wk =   0.0120000
        k(  179) = (   0.0500000   0.4000000  -0.4000000), wk =   0.0120000
        k(  180) = (   0.0500000   0.4000000  -0.3500000), wk =   0.0060000
        k(  181) = (   0.0500000   0.4500000  -0.5000000), wk =   0.0060000
        k(  182) = (   0.0500000   0.4500000  -0.4500000), wk =   0.0120000
        k(  183) = (   0.0500000   0.4500000  -0.4000000), wk =   0.0060000
        k(  184) = (   0.0500000  -0.5000000  -0.4500000), wk =   0.0030000
        k(  185) = (   0.1000000   0.2000000   0.3000000), wk =   0.0060000
        k(  186) = (   0.1000000   0.2000000   0.3500000), wk =   0.0120000
        k(  187) = (   0.1000000   0.2000000   0.4000000), wk =   0.0120000
        k(  188) = (   0.1000000   0.2000000   0.4500000), wk =   0.0120000
        k(  189) = (   0.1000000   0.2000000  -0.5000000), wk =   0.0120000
        k(  190) = (   0.1000000   0.2000000  -0.4500000), wk =   0.0120000
        k(  191) = (   0.1000000   0.2000000  -0.4000000), wk =   0.0060000
        k(  192) = (   0.1000000   0.2500000   0.3500000), wk =   0.0060000
        k(  193) = (   0.1000000   0.2500000   0.4000000), wk =   0.0120000
        k(  194) = (   0.1000000   0.2500000   0.4500000), wk =   0.0120000
        k(  195) = (   0.1000000   0.2500000  -0.5000000), wk =   0.0120000
        k(  196) = (   0.1000000   0.2500000  -0.4500000), wk =   0.0120000
        k(  197) = (   0.1000000   0.2500000  -0.4000000), wk =   0.0120000
        k(  198) = (   0.1000000   0.2500000  -0.3500000), wk =   0.0120000
        k(  199) = (   0.1000000   0.2500000  -0.3000000), wk =   0.0120000
        k(  200) = (   0.1000000   0.2500000  -0.2500000), wk =   0.0120000
        k(  201) = (   0.1000000   0.2500000  -0.2000000), wk =   0.0120000
        k(  202) = (   0.1000000   0.2500000  -0.1500000), wk =   0.0060000
        k(  203) = (   0.1000000   0.3000000   0.4000000), wk =   0.0060000
        k(  204) = (   0.1000000   0.3000000   0.4500000), wk =   0.0120000
        k(  205) = (   0.1000000   0.3000000  -0.5000000), wk =   0.0120000
        k(  206) = (   0.1000000   0.3000000  -0.4500000), wk =   0.0120000
        k(  207) = (   0.1000000   0.3000000  -0.4000000), wk =   0.0120000
        k(  208) = (   0.1000000   0.3000000  -0.3500000), wk =   0.0120000
        k(  209) = (   0.1000000   0.3000000  -0.3000000), wk =   0.0120000
        k(  210) = (   0.1000000   0.3000000  -0.2500000), wk =   0.0120000
        k(  211) = (   0.1000000   0.3000000  -0.2000000), wk =   0.0060000
        k(  212) = (   0.1000000   0.3500000   0.4500000), wk =   0.0060000
        k(  213) = (   0.1000000   0.3500000  -0.5000000), wk =   0.0120000
        k(  214) = (   0.1000000   0.3500000  -0.4500000), wk =   0.0120000
        k(  215) = (   0.1000000   0.3500000  -0.4000000), wk =   0.0120000
        k(  216) = (   0.1000000   0.3500000  -0.3500000), wk =   0.0120000
        k(  217) = (   0.1000000   0.3500000  -0.3000000), wk =   0.0120000
        k(  218) = (   0.1000000   0.3500000  -0.2500000), wk =   0.0060000
        k(  219) = (   0.1000000   0.4000000  -0.5000000), wk =   0.0060000
        k(  220) = (   0.1000000   0.4000000  -0.4500000), wk =   0.0120000
        k(  221) = (   0.1000000   0.4000000  -0.4000000), wk =   0.0120000
        k(  222) = (   0.1000000   0.4000000  -0.3500000), wk =   0.0120000
        k(  223) = (   0.1000000   0.4000000  -0.3000000), wk =   0.0060000
        k(  224) = (   0.1000000   0.4500000  -0.4500000), wk =   0.0060000
        k(  225) = (   0.1000000   0.4500000  -0.4000000), wk =   0.0120000
        k(  226) = (   0.1000000   0.4500000  -0.3500000), wk =   0.0060000
        k(  227) = (   0.1000000  -0.5000000  -0.4000000), wk =   0.0030000
        k(  228) = (   0.1500000   0.3000000   0.4500000), wk =   0.0060000
        k(  229) = (   0.1500000   0.3000000  -0.5000000), wk =   0.0120000
        k(  230) = (   0.1500000   0.3000000  -0.4500000), wk =   0.0120000
        k(  231) = (   0.1500000   0.3000000  -0.4000000), wk =   0.0120000
        k(  232) = (   0.1500000   0.3000000  -0.3500000), wk =   0.0060000
        k(  233) = (   0.1500000   0.3500000  -0.5000000), wk =   0.0060000
        k(  234) = (   0.1500000   0.3500000  -0.4500000), wk =   0.0120000
        k(  235) = (   0.1500000   0.3500000  -0.4000000), wk =   0.0120000
        k(  236) = (   0.1500000   0.3500000  -0.3500000), wk =   0.0120000
        k(  237) = (   0.1500000   0.3500000  -0.3000000), wk =   0.0120000
        k(  238) = (   0.1500000   0.3500000  -0.2500000), wk =   0.0120000
        k(  239) = (   0.1500000   0.3500000  -0.2000000), wk =   0.0060000
        k(  240) = (   0.1500000   0.4000000  -0.4500000), wk =   0.0060000
        k(  241) = (   0.1500000   0.4000000  -0.4000000), wk =   0.0120000
        k(  242) = (   0.1500000   0.4000000  -0.3500000), wk =   0.0120000
        k(  243) = (   0.1500000   0.4000000  -0.3000000), wk =   0.0120000
        k(  244) = (   0.1500000   0.4000000  -0.2500000), wk =   0.0060000
        k(  245) = (   0.1500000   0.4500000  -0.4000000), wk =   0.0060000
        k(  246) = (   0.1500000   0.4500000  -0.3500000), wk =   0.0120000
        k(  247) = (   0.1500000   0.4500000  -0.3000000), wk =   0.0060000
        k(  248) = (   0.1500000  -0.5000000  -0.3500000), wk =   0.0030000
        k(  249) = (   0.2000000   0.4000000  -0.4000000), wk =   0.0060000
        k(  250) = (   0.2000000   0.4000000  -0.3500000), wk =   0.0120000
        k(  251) = (   0.2000000   0.4000000  -0.3000000), wk =   0.0060000
        k(  252) = (   0.2000000   0.4500000  -0.3500000), wk =   0.0060000
        k(  253) = (   0.2000000   0.4500000  -0.3000000), wk =   0.0120000
        k(  254) = (   0.2000000   0.4500000  -0.2500000), wk =   0.0060000
        k(  255) = (   0.2000000  -0.5000000  -0.3000000), wk =   0.0030000
        k(  256) = (   0.2500000  -0.5000000  -0.2500000), wk =   0.0015000

     Dense  grid:    20107 G-vectors     FFT dimensions: (  40,  40,  40)

     Dynamical RAM for                 wfc:       0.50 MB

     Dynamical RAM for     wfc (w. buffer):       0.50 MB

     Dynamical RAM for           str. fact:       0.61 MB

     Dynamical RAM for           local pot:       0.00 MB

     Dynamical RAM for          nlocal pot:       1.38 MB

     Dynamical RAM for                qrad:       2.49 MB

     Dynamical RAM for          rho,v,vnew:       2.39 MB

     Dynamical RAM for           G-vectors:       1.30 MB

     Dynamical RAM for          h,s,v(r/c):       0.03 MB

     Dynamical RAM for          <psi|beta>:       0.01 MB

     Dynamical RAM for                 psi:       1.00 MB

     Dynamical RAM for                hpsi:       1.00 MB

     Dynamical RAM for      wfcinit/wfcrot:       1.00 MB

     Estimated static dynamical RAM per process >      12.03 MB

     Estimated max dynamical RAM per process >      14.07 MB

     The potential is recalculated from file :
     ./SCRATCH/gallium_arsenide.save/charge-density

     Starting wfcs are random

     Band Structure Calculation
     Davidson diagonalization with overlap

     Computing kpt #:     1  of   256
     total cpu time spent up to now is        0.7 secs

     Computing kpt #:     2  of   256
     total cpu time spent up to now is        1.3 secs

     Computing kpt #:     3  of   256
     total cpu time spent up to now is        1.8 secs

     Computing kpt #:     4  of   256
     total cpu time spent up to now is        2.3 secs

     Computing kpt #:     5  of   256
     total cpu time spent up to now is        2.9 secs

     Computing kpt #:     6  of   256
     total cpu time spent up to now is        3.5 secs

     Computing kpt #:     7  of   256
     total cpu time spent up to now is        4.0 secs

     Computing kpt #:     8  of   256
     total cpu time spent up to now is        4.5 secs

     Computing kpt #:     9  of   256
     total cpu time spent up to now is        5.1 secs

     Computing kpt #:    10  of   256
     total cpu time spent up to now is        5.6 secs

     Computing kpt #:    11  of   256
     total cpu time spent up to now is        6.1 secs

     Computing kpt #:    12  of   256
     total cpu time spent up to now is        6.7 secs

     Computing kpt #:    13  of   256
     total cpu time spent up to now is        7.2 secs

     Computing kpt #:    14  of   256
     total cpu time spent up to now is        7.8 secs

     Computing kpt #:    15  of   256
     total cpu time spent up to now is        8.3 secs

     Computing kpt #:    16  of   256
     total cpu time spent up to now is        8.9 secs

     Computing kpt #:    17  of   256
     total cpu time spent up to now is        9.5 secs

     Computing kpt #:    18  of   256
     total cpu time spent up to now is       10.0 secs

     Computing kpt #:    19  of   256
     total cpu time spent up to now is       10.5 secs

     Computing kpt #:    20  of   256
     total cpu time spent up to now is       11.1 secs

     Computing kpt #:    21  of   256
     total cpu time spent up to now is       11.7 secs

     Computing kpt #:    22  of   256
     total cpu time spent up to now is       12.2 secs

     Computing kpt #:    23  of   256
     total cpu time spent up to now is       12.8 secs

     Computing kpt #:    24  of   256
     total cpu time spent up to now is       13.3 secs

     Computing kpt #:    25  of   256
     total cpu time spent up to now is       13.9 secs

     Computing kpt #:    26  of   256
     total cpu time spent up to now is       14.4 secs

     Computing kpt #:    27  of   256
     total cpu time spent up to now is       15.0 secs

     Computing kpt #:    28  of   256
     total cpu time spent up to now is       15.6 secs

     Computing kpt #:    29  of   256
     total cpu time spent up to now is       16.2 secs

     Computing kpt #:    30  of   256
     total cpu time spent up to now is       16.8 secs

     Computing kpt #:    31  of   256
     total cpu time spent up to now is       17.3 secs

     Computing kpt #:    32  of   256
     total cpu time spent up to now is       17.9 secs

     Computing kpt #:    33  of   256
     total cpu time spent up to now is       18.4 secs

     Computing kpt #:    34  of   256
     total cpu time spent up to now is       19.0 secs

     Computing kpt #:    35  of   256
     total cpu time spent up to now is       19.5 secs

     Computing kpt #:    36  of   256
     total cpu time spent up to now is       20.1 secs

     Computing kpt #:    37  of   256
     total cpu time spent up to now is       20.6 secs

     Computing kpt #:    38  of   256
     total cpu time spent up to now is       21.2 secs

     Computing kpt #:    39  of   256
     total cpu time spent up to now is       21.7 secs

     Computing kpt #:    40  of   256
     total cpu time spent up to now is       22.3 secs

     Computing kpt #:    41  of   256
     total cpu time spent up to now is       22.8 secs

     Computing kpt #:    42  of   256
     total cpu time spent up to now is       23.4 secs

     Computing kpt #:    43  of   256
     total cpu time spent up to now is       23.9 secs

     Computing kpt #:    44  of   256
     total cpu time spent up to now is       24.5 secs

     Computing kpt #:    45  of   256
     total cpu time spent up to now is       25.0 secs

     Computing kpt #:    46  of   256
     total cpu time spent up to now is       25.5 secs

     Computing kpt #:    47  of   256
     total cpu time spent up to now is       26.1 secs

     Computing kpt #:    48  of   256
     total cpu time spent up to now is       26.7 secs

     Computing kpt #:    49  of   256
     total cpu time spent up to now is       27.2 secs

     Computing kpt #:    50  of   256
     total cpu time spent up to now is       27.8 secs

     Computing kpt #:    51  of   256
     total cpu time spent up to now is       28.4 secs

     Computing kpt #:    52  of   256
     total cpu time spent up to now is       28.9 secs

     Computing kpt #:    53  of   256
     total cpu time spent up to now is       29.5 secs

     Computing kpt #:    54  of   256
     total cpu time spent up to now is       30.0 secs

     Computing kpt #:    55  of   256
     total cpu time spent up to now is       30.6 secs

     Computing kpt #:    56  of   256
     total cpu time spent up to now is       31.2 secs

     Computing kpt #:    57  of   256
     total cpu time spent up to now is       31.7 secs

     Computing kpt #:    58  of   256
     total cpu time spent up to now is       32.3 secs

     Computing kpt #:    59  of   256
     total cpu time spent up to now is       32.8 secs

     Computing kpt #:    60  of   256
     total cpu time spent up to now is       33.4 secs

     Computing kpt #:    61  of   256
     total cpu time spent up to now is       33.9 secs

     Computing kpt #:    62  of   256
     total cpu time spent up to now is       34.5 secs

     Computing kpt #:    63  of   256
     total cpu time spent up to now is       35.1 secs

     Computing kpt #:    64  of   256
     total cpu time spent up to now is       35.6 secs

     Computing kpt #:    65  of   256
     total cpu time spent up to now is       36.2 secs

     Computing kpt #:    66  of   256
     total cpu time spent up to now is       36.8 secs

     Computing kpt #:    67  of   256
     total cpu time spent up to now is       37.3 secs

     Computing kpt #:    68  of   256
     total cpu time spent up to now is       37.9 secs

     Computing kpt #:    69  of   256
     total cpu time spent up to now is       38.4 secs

     Computing kpt #:    70  of   256
     total cpu time spent up to now is       39.0 secs

     Computing kpt #:    71  of   256
     total cpu time spent up to now is       39.6 secs

     Computing kpt #:    72  of   256
     total cpu time spent up to now is       40.1 secs

     Computing kpt #:    73  of   256
     total cpu time spent up to now is       40.7 secs

     Computing kpt #:    74  of   256
     total cpu time spent up to now is       41.2 secs

     Computing kpt #:    75  of   256
     total cpu time spent up to now is       41.8 secs

     Computing kpt #:    76  of   256
     total cpu time spent up to now is       42.4 secs

     Computing kpt #:    77  of   256
     total cpu time spent up to now is       43.0 secs

     Computing kpt #:    78  of   256
     total cpu time spent up to now is       43.5 secs

     Computing kpt #:    79  of   256
     total cpu time spent up to now is       44.1 secs

     Computing kpt #:    80  of   256
     total cpu time spent up to now is       44.7 secs

     Computing kpt #:    81  of   256
     total cpu time spent up to now is       45.2 secs

     Computing kpt #:    82  of   256
     total cpu time spent up to now is       45.8 secs

     Computing kpt #:    83  of   256
     total cpu time spent up to now is       46.4 secs

     Computing kpt #:    84  of   256
     total cpu time spent up to now is       47.0 secs

     Computing kpt #:    85  of   256
     total cpu time spent up to now is       47.6 secs

     Computing kpt #:    86  of   256
     total cpu time spent up to now is       48.1 secs

     Computing kpt #:    87  of   256
     total cpu time spent up to now is       48.7 secs

     Computing kpt #:    88  of   256
     total cpu time spent up to now is       49.4 secs

     Computing kpt #:    89  of   256
     total cpu time spent up to now is       49.9 secs

     Computing kpt #:    90  of   256
     total cpu time spent up to now is       50.5 secs

     Computing kpt #:    91  of   256
     total cpu time spent up to now is       51.0 secs

     Computing kpt #:    92  of   256
     total cpu time spent up to now is       51.6 secs

     Computing kpt #:    93  of   256
     total cpu time spent up to now is       52.2 secs

     Computing kpt #:    94  of   256
     total cpu time spent up to now is       52.8 secs

     Computing kpt #:    95  of   256
     total cpu time spent up to now is       53.5 secs

     Computing kpt #:    96  of   256
     total cpu time spent up to now is       54.0 secs

     Computing kpt #:    97  of   256
     total cpu time spent up to now is       54.7 secs

     Computing kpt #:    98  of   256
     total cpu time spent up to now is       55.3 secs

     Computing kpt #:    99  of   256
     total cpu time spent up to now is       55.8 secs

     Computing kpt #:   100  of   256
     total cpu time spent up to now is       56.3 secs

     Computing kpt #:   101  of   256
     total cpu time spent up to now is       56.9 secs

     Computing kpt #:   102  of   256
     total cpu time spent up to now is       57.6 secs

     Computing kpt #:   103  of   256
     total cpu time spent up to now is       58.2 secs

     Computing kpt #:   104  of   256
     total cpu time spent up to now is       58.8 secs

     Computing kpt #:   105  of   256
     total cpu time spent up to now is       59.3 secs

     Computing kpt #:   106  of   256
     total cpu time spent up to now is       59.9 secs

     Computing kpt #:   107  of   256
     total cpu time spent up to now is       60.5 secs

     Computing kpt #:   108  of   256
     total cpu time spent up to now is       61.1 secs

     Computing kpt #:   109  of   256
     total cpu time spent up to now is       61.8 secs

     Computing kpt #:   110  of   256
     total cpu time spent up to now is       62.4 secs

     Computing kpt #:   111  of   256
     total cpu time spent up to now is       63.0 secs

     Computing kpt #:   112  of   256
     total cpu time spent up to now is       63.5 secs

     Computing kpt #:   113  of   256
     total cpu time spent up to now is       64.1 secs

     Computing kpt #:   114  of   256
     total cpu time spent up to now is       64.6 secs

     Computing kpt #:   115  of   256
     total cpu time spent up to now is       65.2 secs

     Computing kpt #:   116  of   256
     total cpu time spent up to now is       65.8 secs

     Computing kpt #:   117  of   256
     total cpu time spent up to now is       66.3 secs

     Computing kpt #:   118  of   256
     total cpu time spent up to now is       66.9 secs

     Computing kpt #:   119  of   256
     total cpu time spent up to now is       67.5 secs

     Computing kpt #:   120  of   256
     total cpu time spent up to now is       68.0 secs

     Computing kpt #:   121  of   256
     total cpu time spent up to now is       68.6 secs

     Computing kpt #:   122  of   256
     total cpu time spent up to now is       69.2 secs

     Computing kpt #:   123  of   256
     total cpu time spent up to now is       69.8 secs

     Computing kpt #:   124  of   256
     total cpu time spent up to now is       70.4 secs

     Computing kpt #:   125  of   256
     total cpu time spent up to now is       70.9 secs

     Computing kpt #:   126  of   256
     total cpu time spent up to now is       71.5 secs

     Computing kpt #:   127  of   256
     total cpu time spent up to now is       72.0 secs

     Computing kpt #:   128  of   256
     total cpu time spent up to now is       72.6 secs

     Computing kpt #:   129  of   256
     total cpu time spent up to now is       73.2 secs

     Computing kpt #:   130  of   256
     total cpu time spent up to now is       73.7 secs

     Computing kpt #:   131  of   256
     total cpu time spent up to now is       74.3 secs

     Computing kpt #:   132  of   256
     total cpu time spent up to now is       74.8 secs

     Computing kpt #:   133  of   256
     total cpu time spent up to now is       75.4 secs

     Computing kpt #:   134  of   256
     total cpu time spent up to now is       75.9 secs

     Computing kpt #:   135  of   256
     total cpu time spent up to now is       76.5 secs

     Computing kpt #:   136  of   256
     total cpu time spent up to now is       77.0 secs

     Computing kpt #:   137  of   256
     total cpu time spent up to now is       77.6 secs

     Computing kpt #:   138  of   256
     total cpu time spent up to now is       78.2 secs

     Computing kpt #:   139  of   256
     total cpu time spent up to now is       78.7 secs

     Computing kpt #:   140  of   256
     total cpu time spent up to now is       79.2 secs

     Computing kpt #:   141  of   256
     total cpu time spent up to now is       79.8 secs

     Computing kpt #:   142  of   256
     total cpu time spent up to now is       80.3 secs

     Computing kpt #:   143  of   256
     total cpu time spent up to now is       80.9 secs

     Computing kpt #:   144  of   256
     total cpu time spent up to now is       81.4 secs

     Computing kpt #:   145  of   256
     total cpu time spent up to now is       82.0 secs

     Computing kpt #:   146  of   256
     total cpu time spent up to now is       82.6 secs

     Computing kpt #:   147  of   256
     total cpu time spent up to now is       83.1 secs

     Computing kpt #:   148  of   256
     total cpu time spent up to now is       83.7 secs

     Computing kpt #:   149  of   256
     total cpu time spent up to now is       84.3 secs

     Computing kpt #:   150  of   256
     total cpu time spent up to now is       84.8 secs

     Computing kpt #:   151  of   256
     total cpu time spent up to now is       85.4 secs

     Computing kpt #:   152  of   256
     total cpu time spent up to now is       86.0 secs

     Computing kpt #:   153  of   256
     total cpu time spent up to now is       86.5 secs

     Computing kpt #:   154  of   256
     total cpu time spent up to now is       87.0 secs

     Computing kpt #:   155  of   256
     total cpu time spent up to now is       87.6 secs

     Computing kpt #:   156  of   256
     total cpu time spent up to now is       88.2 secs

     Computing kpt #:   157  of   256
     total cpu time spent up to now is       88.8 secs

     Computing kpt #:   158  of   256
     total cpu time spent up to now is       89.4 secs

     Computing kpt #:   159  of   256
     total cpu time spent up to now is       89.9 secs

     Computing kpt #:   160  of   256
     total cpu time spent up to now is       90.5 secs

     Computing kpt #:   161  of   256
     total cpu time spent up to now is       91.0 secs

     Computing kpt #:   162  of   256
     total cpu time spent up to now is       91.5 secs

     Computing kpt #:   163  of   256
     total cpu time spent up to now is       92.1 secs

     Computing kpt #:   164  of   256
     total cpu time spent up to now is       92.6 secs

     Computing kpt #:   165  of   256
     total cpu time spent up to now is       93.3 secs

     Computing kpt #:   166  of   256
     total cpu time spent up to now is       93.9 secs

     Computing kpt #:   167  of   256
     total cpu time spent up to now is       94.5 secs

     Computing kpt #:   168  of   256
     total cpu time spent up to now is       95.1 secs

     Computing kpt #:   169  of   256
     total cpu time spent up to now is       95.6 secs

     Computing kpt #:   170  of   256
     total cpu time spent up to now is       96.2 secs

     Computing kpt #:   171  of   256
     total cpu time spent up to now is       96.7 secs

     Computing kpt #:   172  of   256
     total cpu time spent up to now is       97.2 secs

     Computing kpt #:   173  of   256
     total cpu time spent up to now is       97.8 secs

     Computing kpt #:   174  of   256
     total cpu time spent up to now is       98.4 secs

     Computing kpt #:   175  of   256
     total cpu time spent up to now is       99.1 secs

     Computing kpt #:   176  of   256
     total cpu time spent up to now is       99.7 secs

     Computing kpt #:   177  of   256
     total cpu time spent up to now is      100.2 secs

     Computing kpt #:   178  of   256
     total cpu time spent up to now is      100.8 secs

     Computing kpt #:   179  of   256
     total cpu time spent up to now is      101.4 secs

     Computing kpt #:   180  of   256
     total cpu time spent up to now is      102.0 secs

     Computing kpt #:   181  of   256
     total cpu time spent up to now is      102.7 secs

     Computing kpt #:   182  of   256
     total cpu time spent up to now is      103.3 secs

     Computing kpt #:   183  of   256
     total cpu time spent up to now is      103.8 secs

     Computing kpt #:   184  of   256
     total cpu time spent up to now is      104.4 secs

     Computing kpt #:   185  of   256
     total cpu time spent up to now is      105.0 secs

     Computing kpt #:   186  of   256
     total cpu time spent up to now is      105.6 secs

     Computing kpt #:   187  of   256
     total cpu time spent up to now is      106.1 secs

     Computing kpt #:   188  of   256
     total cpu time spent up to now is      106.6 secs

     Computing kpt #:   189  of   256
     total cpu time spent up to now is      107.2 secs

     Computing kpt #:   190  of   256
     total cpu time spent up to now is      107.8 secs

     Computing kpt #:   191  of   256
     total cpu time spent up to now is      108.3 secs

     Computing kpt #:   192  of   256
     total cpu time spent up to now is      108.8 secs

     Computing kpt #:   193  of   256
     total cpu time spent up to now is      109.4 secs

     Computing kpt #:   194  of   256
     total cpu time spent up to now is      110.0 secs

     Computing kpt #:   195  of   256
     total cpu time spent up to now is      110.5 secs

     Computing kpt #:   196  of   256
     total cpu time spent up to now is      111.0 secs

     Computing kpt #:   197  of   256
     total cpu time spent up to now is      111.6 secs

     Computing kpt #:   198  of   256
     total cpu time spent up to now is      112.1 secs

     Computing kpt #:   199  of   256
     total cpu time spent up to now is      112.7 secs

     Computing kpt #:   200  of   256
     total cpu time spent up to now is      113.2 secs

     Computing kpt #:   201  of   256
     total cpu time spent up to now is      113.8 secs

     Computing kpt #:   202  of   256
     total cpu time spent up to now is      114.3 secs

     Computing kpt #:   203  of   256
     total cpu time spent up to now is      114.9 secs

     Computing kpt #:   204  of   256
     total cpu time spent up to now is      115.5 secs

     Computing kpt #:   205  of   256
     total cpu time spent up to now is      116.0 secs

     Computing kpt #:   206  of   256
     total cpu time spent up to now is      116.6 secs

     Computing kpt #:   207  of   256
     total cpu time spent up to now is      117.1 secs

     Computing kpt #:   208  of   256
     total cpu time spent up to now is      117.7 secs

     Computing kpt #:   209  of   256
     total cpu time spent up to now is      118.4 secs

     Computing kpt #:   210  of   256
     total cpu time spent up to now is      118.9 secs

     Computing kpt #:   211  of   256
     total cpu time spent up to now is      119.5 secs

     Computing kpt #:   212  of   256
     total cpu time spent up to now is      120.1 secs

     Computing kpt #:   213  of   256
     total cpu time spent up to now is      120.7 secs

     Computing kpt #:   214  of   256
     total cpu time spent up to now is      121.3 secs

     Computing kpt #:   215  of   256
     total cpu time spent up to now is      121.8 secs

     Computing kpt #:   216  of   256
     total cpu time spent up to now is      122.4 secs

     Computing kpt #:   217  of   256
     total cpu time spent up to now is      123.0 secs

     Computing kpt #:   218  of   256
     total cpu time spent up to now is      123.6 secs

     Computing kpt #:   219  of   256
     total cpu time spent up to now is      124.2 secs

     Computing kpt #:   220  of   256
     total cpu time spent up to now is      124.7 secs

     Computing kpt #:   221  of   256
     total cpu time spent up to now is      125.2 secs

     Computing kpt #:   222  of   256
     total cpu time spent up to now is      125.8 secs

     Computing kpt #:   223  of   256
     total cpu time spent up to now is      126.3 secs

     Computing kpt #:   224  of   256
     total cpu time spent up to now is      126.9 secs

     Computing kpt #:   225  of   256
     total cpu time spent up to now is      127.4 secs

     Computing kpt #:   226  of   256
     total cpu time spent up to now is      128.0 secs

     Computing kpt #:   227  of   256
     total cpu time spent up to now is      128.5 secs

     Computing kpt #:   228  of   256
     total cpu time spent up to now is      129.1 secs

     Computing kpt #:   229  of   256
     total cpu time spent up to now is      129.6 secs

     Computing kpt #:   230  of   256
     total cpu time spent up to now is      130.2 secs

     Computing kpt #:   231  of   256
     total cpu time spent up to now is      130.7 secs

     Computing kpt #:   232  of   256
     total cpu time spent up to now is      131.4 secs

     Computing kpt #:   233  of   256
     total cpu time spent up to now is      131.9 secs

     Computing kpt #:   234  of   256
     total cpu time spent up to now is      132.5 secs

     Computing kpt #:   235  of   256
     total cpu time spent up to now is      133.1 secs

     Computing kpt #:   236  of   256
     total cpu time spent up to now is      133.6 secs

     Computing kpt #:   237  of   256
     total cpu time spent up to now is      134.2 secs

     Computing kpt #:   238  of   256
     total cpu time spent up to now is      134.8 secs

     Computing kpt #:   239  of   256
     total cpu time spent up to now is      135.4 secs

     Computing kpt #:   240  of   256
     total cpu time spent up to now is      136.0 secs

     Computing kpt #:   241  of   256
     total cpu time spent up to now is      136.5 secs

     Computing kpt #:   242  of   256
     total cpu time spent up to now is      137.1 secs

     Computing kpt #:   243  of   256
     total cpu time spent up to now is      137.6 secs

     Computing kpt #:   244  of   256
     total cpu time spent up to now is      138.2 secs

     Computing kpt #:   245  of   256
     total cpu time spent up to now is      138.8 secs

     Computing kpt #:   246  of   256
     total cpu time spent up to now is      139.3 secs

     Computing kpt #:   247  of   256
     total cpu time spent up to now is      139.9 secs

     Computing kpt #:   248  of   256
     total cpu time spent up to now is      140.4 secs

     Computing kpt #:   249  of   256
     total cpu time spent up to now is      141.0 secs

     Computing kpt #:   250  of   256
     total cpu time spent up to now is      141.6 secs

     Computing kpt #:   251  of   256
     total cpu time spent up to now is      142.1 secs

     Computing kpt #:   252  of   256
     total cpu time spent up to now is      142.7 secs

     Computing kpt #:   253  of   256
     total cpu time spent up to now is      143.2 secs

     Computing kpt #:   254  of   256
     total cpu time spent up to now is      143.7 secs

     Computing kpt #:   255  of   256
     total cpu time spent up to now is      144.3 secs

     Computing kpt #:   256  of   256
     total cpu time spent up to now is      144.8 secs

     ethr =  5.56E-11,  avg # of iterations = 37.1

     total cpu time spent up to now is      144.8 secs

     End of band structure calculation

          k = 0.0000 0.0000 0.0000 (  2565 PWs)   bands (ev):

    -8.1269  -8.1269  -8.1269  -8.0598  -8.0598  -5.7821   6.5878   6.5878
     6.5878   6.7245  10.3057  10.3057  10.3057

     occupation numbers 
     1.0000   1.0000   1.0000   1.0000   1.0000   1.0000   1.0000   1.0000
     1.0000   0.0000   0.0000   0.0000   0.0000

          k =-0.0500 0.0500-0.0500 (  2529 PWs)   bands (ev):

    -8.1286  -8.1262  -8.1262  -8.0594  -8.0594  -5.7547   5.8581   6.5488
     6.5488   7.3405  10.3394  10.3651  10.3651

     occupation numbers 
     1.0000   1.0000   1.0000   1.0000   1.0000   1.0000   1.0000   1.0000
     1.0000   0.0000   0.0000   0.0000   0.0000

          k =-0.1000 0.1000-0.1000 (  2538 PWs)   bands (ev):

    -8.1339  -8.1250  -8.1250  -8.0597  -8.0597  -5.6733   5.0162   6.4416
     6.4416   7.8073  10.5124  10.5262  10.5262

     occupation numbers 
[...]
     1.0000   1.0000   1.0000   1.0000   1.0000   1.0000   1.0000   1.0000
     1.0000   0.0000   0.0000   0.0000   0.0000

          k = 0.7000-0.3000 0.9000 (  2517 PWs)   bands (ev):

    -8.1999  -8.1030  -8.0977  -8.0693  -8.0539  -4.0455   0.7944   3.6717
     4.5667   9.3226  10.5381  12.0458  14.0855

     occupation numbers 
     1.0000   1.0000   1.0000   1.0000   1.0000   1.0000   1.0000   1.0000
     1.0000   0.0000   0.0000   0.0000   0.0000

          k = 0.6500-0.2500 0.8500 (  2505 PWs)   bands (ev):

    -8.2019  -8.1032  -8.0966  -8.0679  -8.0546  -3.8634   0.5090   3.4523
     4.5093   9.3491  11.0363  12.0958  14.0552

     occupation numbers 
     1.0000   1.0000   1.0000   1.0000   1.0000   1.0000   1.0000   1.0000
     1.0000   0.0000   0.0000   0.0000   0.0000

          k = 0.6000-0.2000 0.8000 (  2512 PWs)   bands (ev):

    -8.2027  -8.1038  -8.0964  -8.0665  -8.0557  -3.7529   0.3450   3.2891
     4.5185   9.3964  11.2487  12.4927  13.9842

     occupation numbers 
     1.0000   1.0000   1.0000   1.0000   1.0000   1.0000   1.0000   1.0000
     1.0000   0.0000   0.0000   0.0000   0.0000

          k = 0.5500-0.1500 0.7500 (  2516 PWs)   bands (ev):

    -8.2019  -8.1046  -8.0969  -8.0653  -8.0569  -3.7427   0.3342   3.1952
     4.5914   9.4722  11.2691  12.8205  14.0328

     occupation numbers 
     1.0000   1.0000   1.0000   1.0000   1.0000   1.0000   1.0000   1.0000
     1.0000   0.0000   0.0000   0.0000   0.0000

          k = 0.5000-0.1000 0.7000 (  2511 PWs)   bands (ev):

    -8.1998  -8.1053  -8.0981  -8.0645  -8.0575  -3.8353   0.4745   3.1860
     4.7198   9.5680  11.2600  12.5065  14.0443

     occupation numbers 
     1.0000   1.0000   1.0000   1.0000   1.0000   1.0000   1.0000   1.0000
     1.0000   0.0000   0.0000   0.0000   0.0000

          k = 0.4500-0.0500 0.6500 (  2504 PWs)   bands (ev):

    -8.1964  -8.1061  -8.1000  -8.0645  -8.0572  -4.0053   0.7279   3.2799
     4.8912   9.6600  11.2181  11.9664  13.7946

     occupation numbers 
     1.0000   1.0000   1.0000   1.0000   1.0000   1.0000   1.0000   1.0000
     1.0000   0.0000   0.0000   0.0000   0.0000

          k = 0.4000 0.0000 0.6000 (  2519 PWs)   bands (ev):

    -8.1923  -8.1074  -8.1026  -8.0650  -8.0567  -4.2168   1.0398   3.4959
     5.0876   9.6946  10.9566  11.7282  13.4321

     occupation numbers 
     1.0000   1.0000   1.0000   1.0000   1.0000   1.0000   1.0000   1.0000
     1.0000   0.0000   0.0000   0.0000   0.0000

          k =-0.2000 0.7000-0.0000 (  2520 PWs)   bands (ev):

    -8.2018  -8.0992  -8.0963  -8.0727  -8.0524  -4.1436   0.9958   4.0044
     4.4469   8.9231   9.5836  12.9032  14.5817

     occupation numbers 
     1.0000   1.0000   1.0000   1.0000   1.0000   1.0000   1.0000   1.0000
     1.0000   0.0000   0.0000   0.0000   0.0000

          k = 0.7500-0.2500 0.9500 (  2505 PWs)   bands (ev):

    -8.2047  -8.0989  -8.0944  -8.0721  -8.0526  -3.9406   0.6920   3.7225
     4.3155   9.1228   9.8649  12.7266  14.8059

     occupation numbers 
     1.0000   1.0000   1.0000   1.0000   1.0000   1.0000   1.0000   1.0000
     1.0000   0.0000   0.0000   0.0000   0.0000

          k = 0.7000-0.2000 0.9000 (  2507 PWs)   bands (ev):

    -8.2062  -8.0996  -8.0933  -8.0710  -8.0535  -3.7651   0.4492   3.4421
     4.2567   9.1954  10.4577  12.5705  14.7411

     occupation numbers 
     1.0000   1.0000   1.0000   1.0000   1.0000   1.0000   1.0000   1.0000
     1.0000   0.0000   0.0000   0.0000   0.0000

          k = 0.6500-0.1500 0.8500 (  2511 PWs)   bands (ev):

    -8.2065  -8.1008  -8.0931  -8.0695  -8.0546  -3.6487   0.3008   3.2033
     4.2731   9.2608  11.1466  12.4902  14.4173

     occupation numbers 
     1.0000   1.0000   1.0000   1.0000   1.0000   1.0000   1.0000   1.0000
     1.0000   0.0000   0.0000   0.0000   0.0000

          k = 0.6000-0.1000 0.8000 (  2511 PWs)   bands (ev):

    -8.2054  -8.1022  -8.0937  -8.0677  -8.0560  -3.6184   0.2705   3.0412
     4.3562   9.3554  11.6777  12.5857  13.9033

     occupation numbers 
     1.0000   1.0000   1.0000   1.0000   1.0000   1.0000   1.0000   1.0000
     1.0000   0.0000   0.0000   0.0000   0.0000

          k = 0.5500-0.0500 0.7500 (  2516 PWs)   bands (ev):

    -8.2033  -8.1036  -8.0951  -8.0662  -8.0572  -3.6813   0.3555   2.9845
     4.4960   9.4768  11.8532  12.4842  13.8768

     occupation numbers 
     1.0000   1.0000   1.0000   1.0000   1.0000   1.0000   1.0000   1.0000
     1.0000   0.0000   0.0000   0.0000   0.0000

          k = 0.5000-0.0000 0.7000 (  2509 PWs)   bands (ev):

    -8.2002  -8.1048  -8.0973  -8.0650  -8.0576  -3.8202   0.5230   3.0582
     4.6801   9.6005  11.8005  11.9562  14.2194

     occupation numbers 
     1.0000   1.0000   1.0000   1.0000   1.0000   1.0000   1.0000   1.0000
     1.0000   0.0000   0.0000   0.0000   0.0000

          k = 0.8000-0.2000 1.0000 (  2509 PWs)   bands (ev):

    -8.2095  -8.0950  -8.0917  -8.0748  -8.0516  -3.8213   0.5186   3.8484
     4.1448   8.8234   9.3024  13.6100  15.3319

     occupation numbers 
     1.0000   1.0000   1.0000   1.0000   1.0000   1.0000   1.0000   1.0000
     1.0000   0.0000   0.0000   0.0000   0.0000

          k = 0.7500-0.1500 0.9500 (  2508 PWs)   bands (ev):

    -8.2106  -8.0958  -8.0908  -8.0738  -8.0521  -3.6651   0.3233   3.5836
     4.0521   9.0193   9.6793  13.4314  15.2787

     occupation numbers 
     1.0000   1.0000   1.0000   1.0000   1.0000   1.0000   1.0000   1.0000
     1.0000   0.0000   0.0000   0.0000   0.0000

          k = 0.7000-0.1000 0.9000 (  2517 PWs)   bands (ev):

    -8.2103  -8.0975  -8.0907  -8.0724  -8.0534  -3.5594   0.2096   3.2939
     4.0673   9.1016  10.3653  13.2669  14.7181

     occupation numbers 
     1.0000   1.0000   1.0000   1.0000   1.0000   1.0000   1.0000   1.0000
     1.0000   0.0000   0.0000   0.0000   0.0000

          k = 0.6500-0.0500 0.8500 (  2518 PWs)   bands (ev):

    -8.2088  -8.0995  -8.0913  -8.0704  -8.0548  -3.5259   0.1887   3.0655
     4.1558   9.2019  11.1463  13.1255  13.9531

     occupation numbers 
     1.0000   1.0000   1.0000   1.0000   1.0000   1.0000   1.0000   1.0000
     1.0000   0.0000   0.0000   0.0000   0.0000

          k = 0.6000 0.0000 0.8000 (  2510 PWs)   bands (ev):

    -8.2063  -8.1016  -8.0927  -8.0681  -8.0561  -3.5706   0.2486   2.9502
     4.3027   9.3337  11.8381  12.8100  13.5191

     occupation numbers 
     1.0000   1.0000   1.0000   1.0000   1.0000   1.0000   1.0000   1.0000
     1.0000   0.0000   0.0000   0.0000   0.0000

          k = 0.8000-0.1000 1.0000 (  2514 PWs)   bands (ev):

    -8.2144  -8.0924  -8.0891  -8.0762  -8.0511  -3.5762   0.1798   3.7772
     3.9355   8.8026   9.0699  14.3722  15.5904

     occupation numbers 
     1.0000   1.0000   1.0000   1.0000   1.0000   1.0000   1.0000   1.0000
     1.0000   0.0000   0.0000   0.0000   0.0000

          k = 0.7500-0.0500 0.9500 (  2515 PWs)   bands (ev):

    -8.2137  -8.0941  -8.0890  -8.0748  -8.0519  -3.4993   0.1112   3.5174
     3.9132   8.9684   9.5710  14.1873  14.9369

     occupation numbers 
     1.0000   1.0000   1.0000   1.0000   1.0000   1.0000   1.0000   1.0000
     1.0000   0.0000   0.0000   0.0000   0.0000

          k = 0.7000 0.0000 0.9000 (  2515 PWs)   bands (ev):

    -8.2117  -8.0966  -8.0897  -8.0728  -8.0533  -3.4823   0.1220   3.2424
     4.0041   9.0682  10.3293  13.9104  14.1678

     occupation numbers 
     1.0000   1.0000   1.0000   1.0000   1.0000   1.0000   1.0000   1.0000
     1.0000   0.0000   0.0000   0.0000   0.0000

          k =-0.2000-1.0000 0.0000 (  2514 PWs)   bands (ev):

    -8.2161  -8.0914  -8.0882  -8.0767  -8.0509  -3.4817   0.0539   3.7752
     3.8432   8.8306   8.9543  15.0401  15.1819

     occupation numbers 
     1.0000   1.0000   1.0000   1.0000   1.0000   1.0000   1.0000   1.0000
     1.0000   0.0000   0.0000   0.0000   0.0000

          k =-0.3000 0.6000-0.0000 (  2516 PWs)   bands (ev):

    -8.1913  -8.1063  -8.1024  -8.0675  -8.0548  -4.3677   1.3087   3.8585
     4.9642   9.7226  10.1884  11.7425  13.5921

     occupation numbers 
     1.0000   1.0000   1.0000   1.0000   1.0000   1.0000   1.0000   1.0000
     1.0000   0.0000   0.0000   0.0000   0.0000

          k = 0.6500-0.3500 0.9500 (  2513 PWs)   bands (ev):

    -8.1957  -8.1055  -8.1000  -8.0673  -8.0551  -4.1447   0.9452   3.5877
     4.7874   9.8260  10.5403  11.6613  13.9014

     occupation numbers 
     1.0000   1.0000   1.0000   1.0000   1.0000   1.0000   1.0000   1.0000
     1.0000   0.0000   0.0000   0.0000   0.0000

          k = 0.6000-0.3000 0.9000 (  2505 PWs)   bands (ev):

    -8.1989  -8.1051  -8.0981  -8.0663  -8.0557  -3.9434   0.6274   3.4076
     4.6356   9.8243  10.8073  11.9071  14.0420

     occupation numbers 
     1.0000   1.0000   1.0000   1.0000   1.0000   1.0000   1.0000   1.0000
     1.0000   0.0000   0.0000   0.0000   0.0000

          k = 0.5500-0.2500 0.8500 (  2506 PWs)   bands (ev):

    -8.2011  -8.1049  -8.0970  -8.0655  -8.0564  -3.7988   0.4056   3.3065
     4.5347   9.8146  10.8434  12.4529  14.0839

     occupation numbers 
     1.0000   1.0000   1.0000   1.0000   1.0000   1.0000   1.0000   1.0000
     1.0000   0.0000   0.0000   0.0000   0.0000

          k = 0.5000-0.2000 0.8000 (  2518 PWs)   bands (ev):

    -8.2019  -8.1050  -8.0967  -8.0652  -8.0568  -3.7455   0.3252   3.2742
     4.4994   9.8110  10.8354  12.7929  14.0834

     occupation numbers 
     1.0000   1.0000   1.0000   1.0000   1.0000   1.0000   1.0000   1.0000
     1.0000   0.0000   0.0000   0.0000   0.0000

          k = 0.7000-0.3000 1.0000 (  2507 PWs)   bands (ev):

    -8.2000  -8.1025  -8.0969  -8.0698  -8.0538  -4.0538   0.8544   3.6459
     4.4957   9.6688  10.1108  11.9812  14.5045

     occupation numbers 
     1.0000   1.0000   1.0000   1.0000   1.0000   1.0000   1.0000   1.0000
     1.0000   0.0000   0.0000   0.0000   0.0000

          k = 0.6500-0.2500 0.9500 (  2508 PWs)   bands (ev):

    -8.2027  -8.1024  -8.0951  -8.0691  -8.0546  -3.8595   0.5854   3.4138
     4.3316   9.8406  10.5382  11.8380  14.6916

     occupation numbers 
     1.0000   1.0000   1.0000   1.0000   1.0000   1.0000   1.0000   1.0000
     1.0000   0.0000   0.0000   0.0000   0.0000

          k = 0.6000-0.2000 0.9000 (  2511 PWs)   bands (ev):

    -8.2043  -8.1028  -8.0939  -8.0682  -8.0555  -3.7098   0.3857   3.2418
     4.2305   9.8946  11.0220  11.9103  14.4198

     occupation numbers 
     1.0000   1.0000   1.0000   1.0000   1.0000   1.0000   1.0000   1.0000
     1.0000   0.0000   0.0000   0.0000   0.0000

          k = 0.5500-0.1500 0.8500 (  2514 PWs)   bands (ev):

    -8.2047  -8.1034  -8.0936  -8.0672  -8.0563  -3.6364   0.2918   3.1338
     4.2100   9.9562  11.1573  12.3590  13.8420

     occupation numbers 
     1.0000   1.0000   1.0000   1.0000   1.0000   1.0000   1.0000   1.0000
     1.0000   0.0000   0.0000   0.0000   0.0000

          k = 0.5000-0.1000 0.8000 (  2515 PWs)   bands (ev):

    -8.2039  -8.1038  -8.0941  -8.0667  -8.0568  -3.6583   0.3230   3.0995
     4.2703  10.0306  11.1415  12.3766  13.8231

     occupation numbers 
     1.0000   1.0000   1.0000   1.0000   1.0000   1.0000   1.0000   1.0000
     1.0000   0.0000   0.0000   0.0000   0.0000

          k = 0.4500-0.0500 0.7500 (  2509 PWs)   bands (ev):

    -8.2021  -8.1042  -8.0954  -8.0666  -8.0565  -3.7690   0.4677   3.1545
     4.4006  10.0963  11.0825  11.8169  14.3891

     occupation numbers 
     1.0000   1.0000   1.0000   1.0000   1.0000   1.0000   1.0000   1.0000
     1.0000   0.0000   0.0000   0.0000   0.0000

          k = 0.4000 0.0000 0.7000 (  2507 PWs)   bands (ev):

    -8.1992  -8.1047  -8.0974  -8.0669  -8.0559  -3.9418   0.6888   3.3143
     4.5822  10.0890  10.7977  11.5588  14.3895

     occupation numbers 
     1.0000   1.0000   1.0000   1.0000   1.0000   1.0000   1.0000   1.0000
     1.0000   0.0000   0.0000   0.0000   0.0000

          k = 0.7000-0.2000 1.0000 (  2503 PWs)   bands (ev):

    -8.2068  -8.0991  -8.0925  -8.0716  -8.0532  -3.7635   0.4713   3.5236
     4.1000   9.5874   9.9362  12.5370  15.1106

     occupation numbers 
     1.0000   1.0000   1.0000   1.0000   1.0000   1.0000   1.0000   1.0000
     1.0000   0.0000   0.0000   0.0000   0.0000

          k = 0.6500-0.1500 0.9500 (  2513 PWs)   bands (ev):

    -8.2078  -8.1000  -8.0915  -8.0707  -8.0544  -3.6228   0.3093   3.3273
     3.9690   9.7725  10.4662  12.3695  14.6211

     occupation numbers 
     1.0000   1.0000   1.0000   1.0000   1.0000   1.0000   1.0000   1.0000
     1.0000   0.0000   0.0000   0.0000   0.0000

          k = 0.6000-0.1000 0.9000 (  2518 PWs)   bands (ev):

    -8.2076  -8.1012  -8.0913  -8.0695  -8.0555  -3.5451   0.2289   3.1507
     3.9529   9.8592  11.1608  12.2785  13.8172

     occupation numbers 
     1.0000   1.0000   1.0000   1.0000   1.0000   1.0000   1.0000   1.0000
     1.0000   0.0000   0.0000   0.0000   0.0000

          k = 0.5500-0.0500 0.8500 (  2514 PWs)   bands (ev):

    -8.2065  -8.1023  -8.0919  -8.0681  -8.0564  -3.5475   0.2397   3.0397
     4.0346   9.9642  11.6243  12.2530  13.2737

     occupation numbers 
     1.0000   1.0000   1.0000   1.0000   1.0000   1.0000   1.0000   1.0000
     1.0000   0.0000   0.0000   0.0000   0.0000

          k = 0.5000 0.0000 0.8000 (  2513 PWs)   bands (ev):

    -8.2046  -8.1034  -8.0933  -8.0671  -8.0568  -3.6285   0.3292   3.0332
     4.1911  10.0720  11.6449  11.8259  13.7262

     occupation numbers 
     1.0000   1.0000   1.0000   1.0000   1.0000   1.0000   1.0000   1.0000
     1.0000   0.0000   0.0000   0.0000   0.0000

          k = 0.7000-0.1000 1.0000 (  2517 PWs)   bands (ev):

    -8.2111  -8.0970  -8.0900  -8.0730  -8.0531  -3.5485   0.2035   3.4966
     3.8043   9.5593   9.7620  13.2425  14.7816

     occupation numbers 
     1.0000   1.0000   1.0000   1.0000   1.0000   1.0000   1.0000   1.0000
     1.0000   0.0000   0.0000   0.0000   0.0000

          k = 0.6500-0.0500 0.9500 (  2517 PWs)   bands (ev):

    -8.2103  -8.0987  -8.0898  -8.0714  -8.0543  -3.4846   0.1547   3.3119
     3.7512   9.7264  10.4033  13.0594  13.9179

     occupation numbers 
     1.0000   1.0000   1.0000   1.0000   1.0000   1.0000   1.0000   1.0000
     1.0000   0.0000   0.0000   0.0000   0.0000

          k = 0.6000 0.0000 0.9000 (  2518 PWs)   bands (ev):

    -8.2088  -8.1006  -8.0904  -8.0698  -8.0555  -3.4850   0.1739   3.1232
     3.8528   9.8386  11.1789  12.7480  13.2487

     occupation numbers 
     1.0000   1.0000   1.0000   1.0000   1.0000   1.0000   1.0000   1.0000
     1.0000   0.0000   0.0000   0.0000   0.0000

          k =-0.3000-1.0000 0.0000 (  2516 PWs)   bands (ev):

    -8.2126  -8.0961  -8.0891  -8.0733  -8.0529  -3.4673   0.1051   3.5328
     3.6587   9.5741   9.6740  13.8928  14.1654

     occupation numbers 
     1.0000   1.0000   1.0000   1.0000   1.0000   1.0000   1.0000   1.0000
     1.0000   0.0000   0.0000   0.0000   0.0000

          k = 0.6000-0.2000 1.0000 (  2510 PWs)   bands (ev):

    -8.2049  -8.1024  -8.0931  -8.0687  -8.0554  -3.6958   0.4061   3.2347
     4.1135  10.3333  10.6856  11.6924  14.5214

     occupation numbers 
     1.0000   1.0000   1.0000   1.0000   1.0000   1.0000   1.0000   1.0000
     1.0000   0.0000   0.0000   0.0000   0.0000

          k = 0.5500-0.1500 0.9500 (  2513 PWs)   bands (ev):

    -8.2061  -8.1025  -8.0919  -8.0683  -8.0561  -3.5811   0.2814   3.1341
     3.9610  10.4452  11.0958  11.7947  13.7293

     occupation numbers 
     1.0000   1.0000   1.0000   1.0000   1.0000   1.0000   1.0000   1.0000
     1.0000   0.0000   0.0000   0.0000   0.0000

          k = 0.5000-0.1000 0.9000 (  2512 PWs)   bands (ev):

    -8.2065  -8.1026  -8.0915  -8.0681  -8.0564  -3.5395   0.2362   3.1024
     3.9061  10.4612  11.1944  12.1223  13.2057

     occupation numbers 
     1.0000   1.0000   1.0000   1.0000   1.0000   1.0000   1.0000   1.0000
     1.0000   0.0000   0.0000   0.0000   0.0000

          k = 0.6000-0.1000 1.0000 (  2519 PWs)   bands (ev):

    -8.2084  -8.1007  -8.0906  -8.0700  -8.0553  -3.5201   0.2169   3.2639
     3.7331  10.4137  10.5721  12.1961  13.7854

     occupation numbers 
     1.0000   1.0000   1.0000   1.0000   1.0000   1.0000   1.0000   1.0000
     1.0000   0.0000   0.0000   0.0000   0.0000

          k = 0.5500-0.0500 0.9500 (  2510 PWs)   bands (ev):

    -8.2082  -8.1014  -8.0902  -8.0691  -8.0560  -3.4755   0.1830   3.1982
     3.6520  10.5520  11.1929  12.0675  12.9945

     occupation numbers 
     1.0000   1.0000   1.0000   1.0000   1.0000   1.0000   1.0000   1.0000
     1.0000   0.0000   0.0000   0.0000   0.0000

          k = 0.5000 0.0000 0.9000 (  2512 PWs)   bands (ev):

    -8.2074  -8.1021  -8.0907  -8.0685  -8.0563  -3.4976   0.2082   3.1308
     3.7505  10.6062  11.4602  11.7978  12.9786

     occupation numbers 
     1.0000   1.0000   1.0000   1.0000   1.0000   1.0000   1.0000   1.0000
     1.0000   0.0000   0.0000   0.0000   0.0000

          k =-0.4000-1.0000 0.0000 (  2508 PWs)   bands (ev):

    -8.2094  -8.1000  -8.0896  -8.0702  -8.0552  -3.4554   0.1494   3.3518
     3.5245  10.4751  10.4778  12.7279  13.1696

     occupation numbers 
     1.0000   1.0000   1.0000   1.0000   1.0000   1.0000   1.0000   1.0000
     1.0000   0.0000   0.0000   0.0000   0.0000

          k =-0.5000-1.0000 0.0000 (  2520 PWs)   bands (ev):

    -8.2085  -8.1017  -8.0899  -8.0691  -8.0563  -3.4510   0.1670   3.2852
     3.4761  10.9663  11.2793  11.8371  12.6113

     occupation numbers 
     1.0000   1.0000   1.0000   1.0000   1.0000   1.0000   1.0000   1.0000
     1.0000   0.0000   0.0000   0.0000   0.0000

     highest occupied, lowest unoccupied level (ev):     6.5878    6.7245

     Writing all to output data dir ./SCRATCH/gallium_arsenide.save/

     init_run     :      0.11s CPU      0.14s WALL (       1 calls)
     electrons    :    143.69s CPU    144.66s WALL (       1 calls)

     Called by init_run:
     wfcinit      :      0.00s CPU      0.00s WALL (       1 calls)
     wfcinit:wfcr :      4.30s CPU      4.29s WALL (     256 calls)
     potinit      :      0.00s CPU      0.04s WALL (       1 calls)
     hinit0       :      0.05s CPU      0.04s WALL (       1 calls)

     Called by electrons:
     c_bands      :    143.69s CPU    144.66s WALL (       1 calls)
     v_of_rho     :      0.00s CPU      0.03s WALL (       1 calls)
     v_h          :      0.00s CPU      0.00s WALL (       1 calls)
     v_xc         :      0.00s CPU      0.03s WALL (       1 calls)

     Called by c_bands:
     init_us_2    :      0.09s CPU      0.15s WALL (     256 calls)
     init_us_2:cp :      0.09s CPU      0.15s WALL (     256 calls)
     cegterg      :    138.56s CPU    139.36s WALL (     563 calls)

     Called by sum_band:

     Called by *egterg:
     cdiaghg      :      1.23s CPU      1.46s WALL (    9754 calls)
     cegterg:over :     11.55s CPU     11.15s WALL (    9498 calls)
     cegterg:upda :      4.70s CPU      4.75s WALL (    9498 calls)
     cegterg:last :      8.67s CPU      8.85s WALL (    6920 calls)
     h_psi        :    114.56s CPU    115.19s WALL (   10317 calls)
     g_psi        :      0.69s CPU      0.61s WALL (    9498 calls)

     Called by h_psi:
     h_psi:calbec :      8.56s CPU      9.12s WALL (   10317 calls)
     vloc_psi     :     98.70s CPU     99.00s WALL (   10317 calls)
     add_vuspsi   :      7.14s CPU      6.75s WALL (   10317 calls)

     General routines
     calbec       :      8.55s CPU      9.08s WALL (   10317 calls)
     fft          :      0.00s CPU      0.01s WALL (      10 calls)
     fftw         :     91.02s CPU     91.02s WALL (  194246 calls)
     davcio       :      0.02s CPU      0.07s WALL (     512 calls)


     PWSCF        :   2m23.89s CPU   2m25.03s WALL


   This run was terminated on:  11:58:24   9Jun2024            

=------------------------------------------------------------------------------=
   JOB DONE.
=------------------------------------------------------------------------------=
