
     Program PWSCF v.7.2 starts on 25May2024 at 12:27:22 

     This program is part of the open-source Quantum ESPRESSO suite
     for quantum simulation of materials; please cite
         "P. Giannozzi et al., J. Phys.:Condens. Matter 21 395502 (2009);
         "P. Giannozzi et al., J. Phys.:Condens. Matter 29 465901 (2017);
         "P. Giannozzi et al., J. Chem. Phys. 152 154105 (2020);
          URL http://www.quantum-espresso.org", 
     in publications or presentations arising from this work. More details at
     http://www.quantum-espresso.org/quote

     Serial version
     8824 MiB available memory on the printing compute node when the environment starts

     Waiting for input...
     Reading input from standard input

     Current dimensions of program PWSCF are:
     Max number of different atomic species (ntypx) = 10
     Max number of k-points (npk) =  40000
     Max angular momentum in pseudopotentials (lmaxx) =  4


     G-vector sticks info
     --------------------
     sticks:   dense  smooth     PW     G-vecs:    dense   smooth      PW
     Sum         913     913    271                18149    18149    2975

     Using Slab Decomposition



     bravais-lattice index     =            2
     lattice parameter (alat)  =      10.4818  a.u.
     unit-cell volume          =     287.9059 (a.u.)^3
     number of atoms/cell      =            2
     number of atomic types    =            2
     number of electrons       =         8.00
     number of Kohn-Sham states=            4
     kinetic-energy cutoff     =      60.0000  Ry
     charge density cutoff     =     240.0000  Ry
     scf convergence threshold =      1.0E-08
     mixing beta               =       0.7000
     number of iterations used =            8  plain     mixing
     Exchange-correlation= SLA  PZ   NOGX NOGC
                           (   1   1   0   0   0   0   0)

     celldm(1)=  10.481823  celldm(2)=   0.000000  celldm(3)=   0.000000
     celldm(4)=   0.000000  celldm(5)=   0.000000  celldm(6)=   0.000000

     crystal axes: (cart. coord. in units of alat)
               a(1) = (  -0.500000   0.000000   0.500000 )  
               a(2) = (   0.000000   0.500000   0.500000 )  
               a(3) = (  -0.500000   0.500000   0.000000 )  

     reciprocal axes: (cart. coord. in units 2 pi/alat)
               b(1) = ( -1.000000 -1.000000  1.000000 )  
               b(2) = (  1.000000  1.000000  1.000000 )  
               b(3) = ( -1.000000  1.000000 -1.000000 )  


     PseudoPot. # 1 for Ga read from file:
     /home/paolo/project_labqsm/pseudopotentials/Ga.pz-bhs.UPF
     MD5 check sum: 09b06f4702dea281feaf053846378b49
     Pseudo is Norm-conserving, Zval =  3.0
     Generated by new atomic code, or converted to UPF format
     Using radial grid of  523 points,  2 beta functions with: 
                l(1) =   0
                l(2) =   1

     PseudoPot. # 2 for As read from file:
     /home/paolo/project_labqsm/pseudopotentials/As.pz-bhs.UPF
     MD5 check sum: d67708448008dff3ec15a9356ed645c7
     Pseudo is Norm-conserving, Zval =  5.0
     Generated by new atomic code, or converted to UPF format
     Using radial grid of  525 points,  2 beta functions with: 
                l(1) =   0
                l(2) =   1

     atomic species   valence    mass     pseudopotential
        Ga             3.00    69.72300     Ga( 1.00)
        As             5.00    74.92200     As( 1.00)

     24 Sym. Ops. (no inversion) found



   Cartesian axes

     site n.     atom                  positions (alat units)
         1           Ga  tau(   1) = (   0.0000000   0.0000000   0.0000000  )
         2           As  tau(   2) = (   0.2500000   0.2500000   0.2500000  )

     number of k points=    29
                       cart. coord. in units 2pi/alat
        k(    1) = (   0.0000000   0.0000000   0.0000000), wk =   0.0039062
        k(    2) = (  -0.1250000   0.1250000  -0.1250000), wk =   0.0312500
        k(    3) = (  -0.2500000   0.2500000  -0.2500000), wk =   0.0312500
        k(    4) = (  -0.3750000   0.3750000  -0.3750000), wk =   0.0312500
        k(    5) = (   0.5000000  -0.5000000   0.5000000), wk =   0.0156250
        k(    6) = (   0.0000000   0.2500000   0.0000000), wk =   0.0234375
        k(    7) = (  -0.1250000   0.3750000  -0.1250000), wk =   0.0937500
        k(    8) = (  -0.2500000   0.5000000  -0.2500000), wk =   0.0937500
        k(    9) = (   0.6250000  -0.3750000   0.6250000), wk =   0.0937500
        k(   10) = (   0.5000000  -0.2500000   0.5000000), wk =   0.0937500
        k(   11) = (   0.3750000  -0.1250000   0.3750000), wk =   0.0937500
        k(   12) = (   0.2500000   0.0000000   0.2500000), wk =   0.0468750
        k(   13) = (   0.0000000   0.5000000   0.0000000), wk =   0.0234375
        k(   14) = (  -0.1250000   0.6250000  -0.1250000), wk =   0.0937500
        k(   15) = (   0.7500000  -0.2500000   0.7500000), wk =   0.0937500
        k(   16) = (   0.6250000  -0.1250000   0.6250000), wk =   0.0937500
        k(   17) = (   0.5000000   0.0000000   0.5000000), wk =   0.0468750
        k(   18) = (   0.0000000   0.7500000   0.0000000), wk =   0.0234375
        k(   19) = (   0.8750000  -0.1250000   0.8750000), wk =   0.0937500
        k(   20) = (   0.7500000   0.0000000   0.7500000), wk =   0.0468750
        k(   21) = (   0.0000000  -1.0000000   0.0000000), wk =   0.0117188
        k(   22) = (  -0.2500000   0.5000000   0.0000000), wk =   0.0937500
        k(   23) = (   0.6250000  -0.3750000   0.8750000), wk =   0.1875000
        k(   24) = (   0.5000000  -0.2500000   0.7500000), wk =   0.0937500
        k(   25) = (   0.7500000  -0.2500000   1.0000000), wk =   0.0937500
        k(   26) = (   0.6250000  -0.1250000   0.8750000), wk =   0.1875000
        k(   27) = (   0.5000000   0.0000000   0.7500000), wk =   0.0937500
        k(   28) = (  -0.2500000  -1.0000000   0.0000000), wk =   0.0468750
        k(   29) = (  -0.5000000  -1.0000000   0.0000000), wk =   0.0234375

     Dense  grid:    18149 G-vectors     FFT dimensions: (  40,  40,  40)

     Estimated max dynamical RAM per process >      17.68 MB

     Initial potential from superposition of free atoms

     starting charge       7.9979, renormalised to       8.0000
     Starting wfcs are    8 randomized atomic wfcs

     total cpu time spent up to now is        0.4 secs

     Self-consistent Calculation

     iteration #  1     ecut=    60.00 Ry     beta= 0.70
     Davidson diagonalization with overlap
     ethr =  1.00E-02,  avg # of iterations =  1.6

     Threshold (ethr) on eigenvalues was too large:
     Diagonalizing with lowered threshold

     Davidson diagonalization with overlap
     ethr =  4.78E-04,  avg # of iterations =  3.5

     total cpu time spent up to now is        1.3 secs

     total energy              =     -17.31932237 Ry
     estimated scf accuracy    <       0.04344189 Ry

     iteration #  2     ecut=    60.00 Ry     beta= 0.70
     Davidson diagonalization with overlap
     ethr =  5.43E-04,  avg # of iterations =  2.0

     total cpu time spent up to now is        1.7 secs

     total energy              =     -17.32565289 Ry
     estimated scf accuracy    <       0.00243278 Ry

     iteration #  3     ecut=    60.00 Ry     beta= 0.70
     Davidson diagonalization with overlap
     ethr =  3.04E-05,  avg # of iterations =  3.8

     total cpu time spent up to now is        2.2 secs

     total energy              =     -17.32650021 Ry
     estimated scf accuracy    <       0.00055834 Ry

     iteration #  4     ecut=    60.00 Ry     beta= 0.70
     Davidson diagonalization with overlap
     ethr =  6.98E-06,  avg # of iterations =  3.4

     total cpu time spent up to now is        2.8 secs

     total energy              =     -17.32673205 Ry
     estimated scf accuracy    <       0.00037260 Ry

     iteration #  5     ecut=    60.00 Ry     beta= 0.70
     Davidson diagonalization with overlap
     ethr =  4.66E-06,  avg # of iterations =  1.1

     total cpu time spent up to now is        3.1 secs

     total energy              =     -17.32663957 Ry
     estimated scf accuracy    <       0.00015047 Ry

     iteration #  6     ecut=    60.00 Ry     beta= 0.70
     Davidson diagonalization with overlap
     ethr =  1.88E-06,  avg # of iterations =  3.1

     total cpu time spent up to now is        3.7 secs

     total energy              =     -17.32670348 Ry
     estimated scf accuracy    <       0.00007656 Ry

     iteration #  7     ecut=    60.00 Ry     beta= 0.70
     Davidson diagonalization with overlap
     ethr =  9.57E-07,  avg # of iterations =  1.2

     total cpu time spent up to now is        4.0 secs

     total energy              =     -17.32671087 Ry
     estimated scf accuracy    <       0.00001998 Ry

     iteration #  8     ecut=    60.00 Ry     beta= 0.70
     Davidson diagonalization with overlap
     ethr =  2.50E-07,  avg # of iterations =  1.4

     total cpu time spent up to now is        4.4 secs

     total energy              =     -17.32669921 Ry
     estimated scf accuracy    <       0.00002550 Ry

     iteration #  9     ecut=    60.00 Ry     beta= 0.70
     Davidson diagonalization with overlap
     ethr =  2.50E-07,  avg # of iterations =  2.1

     total cpu time spent up to now is        4.8 secs

     total energy              =     -17.32670141 Ry
     estimated scf accuracy    <       0.00000171 Ry

     iteration # 10     ecut=    60.00 Ry     beta= 0.70
     Davidson diagonalization with overlap
     ethr =  2.13E-08,  avg # of iterations =  5.9

     total cpu time spent up to now is        5.6 secs

     total energy              =     -17.32670308 Ry
     estimated scf accuracy    <       0.00000153 Ry

     iteration # 11     ecut=    60.00 Ry     beta= 0.70
     Davidson diagonalization with overlap
     ethr =  1.91E-08,  avg # of iterations =  2.1

     total cpu time spent up to now is        6.0 secs

     total energy              =     -17.32670324 Ry
     estimated scf accuracy    <       0.00000010 Ry

     iteration # 12     ecut=    60.00 Ry     beta= 0.70
     Davidson diagonalization with overlap
     ethr =  1.25E-09,  avg # of iterations =  3.8

     total cpu time spent up to now is        6.5 secs

     total energy              =     -17.32670342 Ry
     estimated scf accuracy    <       0.00000004 Ry

     iteration # 13     ecut=    60.00 Ry     beta= 0.70
     Davidson diagonalization with overlap
     ethr =  5.39E-10,  avg # of iterations =  3.9

     total cpu time spent up to now is        7.1 secs

     total energy              =     -17.32670320 Ry
     estimated scf accuracy    <       0.00000044 Ry

     iteration # 14     ecut=    60.00 Ry     beta= 0.70
     Davidson diagonalization with overlap
     ethr =  5.39E-10,  avg # of iterations =  4.9

     total cpu time spent up to now is        7.8 secs

     End of self-consistent calculation

          k = 0.0000 0.0000 0.0000 (  2229 PWs)   bands (ev):

    -7.6502   5.1666   5.1666   5.1666

          k =-0.1250 0.1250-0.1250 (  2235 PWs)   bands (ev):

    -7.4878   3.2799   4.9295   4.9295

          k =-0.2500 0.2500-0.2500 (  2238 PWs)   bands (ev):

    -7.0256   0.9533   4.4883   4.4883

          k =-0.3750 0.3750-0.3750 (  2253 PWs)   bands (ev):

    -6.3915  -0.8883   4.1510   4.1510

          k = 0.5000-0.5000 0.5000 (  2276 PWs)   bands (ev):

    -6.0245  -1.6695   4.0306   4.0306

          k = 0.0000 0.2500 0.0000 (  2233 PWs)   bands (ev):

    -7.4331   3.3024   4.4881   4.4881

          k =-0.1250 0.3750-0.1250 (  2246 PWs)   bands (ev):

    -7.0676   1.5223   3.9860   3.9906

          k =-0.2500 0.5000-0.2500 (  2255 PWs)   bands (ev):

    -6.4722  -0.3479   3.3718   3.7025

          k = 0.6250-0.3750 0.6250 (  2266 PWs)   bands (ev):

    -5.9536  -1.4939   2.9211   3.7037

          k = 0.5000-0.2500 0.5000 (  2253 PWs)   bands (ev):

    -6.0846  -1.2298   2.7682   3.9834

          k = 0.3750-0.1250 0.3750 (  2251 PWs)   bands (ev):

    -6.6890   0.2319   2.9904   4.4554

          k = 0.2500 0.0000 0.2500 (  2239 PWs)   bands (ev):

    -7.2237   2.0472   3.7487   4.9002

          k = 0.0000 0.5000 0.0000 (  2269 PWs)   bands (ev):

    -6.8059   1.0662   3.4291   3.4291

          k =-0.1250 0.6250-0.1250 (  2265 PWs)   bands (ev):

    -6.2947  -0.1811   2.6621   3.0953

          k = 0.7500-0.2500 0.7500 (  2265 PWs)   bands (ev):

    -5.7466  -1.2309   1.7842   3.0843

          k = 0.6250-0.1250 0.6250 (  2262 PWs)   bands (ev):

    -5.6595  -1.3589   1.3350   3.3951

          k = 0.5000 0.0000 0.5000 (  2269 PWs)   bands (ev):

    -6.1408  -0.5778   1.6320   3.9382

          k = 0.0000 0.7500 0.0000 (  2265 PWs)   bands (ev):

    -5.8995  -0.8514   2.6856   2.6856

          k = 0.8750-0.1250 0.8750 (  2264 PWs)   bands (ev):

    -5.4650  -1.5010   1.9230   2.6009

          k = 0.7500 0.0000 0.7500 (  2257 PWs)   bands (ev):

    -5.3516  -1.5695   1.0964   2.8597

          k = 0.0000-1.0000 0.0000 (  2272 PWs)   bands (ev):

    -5.3125  -1.7858   2.4260   2.4260

          k =-0.2500 0.5000 0.0000 (  2267 PWs)   bands (ev):

    -6.6264   0.4258   2.6672   3.8468

          k = 0.6250-0.3750 0.8750 (  2264 PWs)   bands (ev):

    -6.0323  -0.8449   1.9838   3.3861

          k = 0.5000-0.2500 0.7500 (  2270 PWs)   bands (ev):

    -5.6975  -1.4649   1.8064   3.1728

          k = 0.7500-0.2500 1.0000 (  2270 PWs)   bands (ev):

    -5.7930  -0.9830   1.9929   2.5992

          k = 0.6250-0.1250 0.8750 (  2258 PWs)   bands (ev):

    -5.4167  -1.4682   1.3104   2.4084

          k = 0.5000 0.0000 0.7500 (  2268 PWs)   bands (ev):

    -5.5514  -1.2958   1.1534   2.7702

          k =-0.2500-1.0000 0.0000 (  2244 PWs)   bands (ev):

    -5.2878  -1.6775   1.8778   2.0066

          k =-0.5000-1.0000 0.0000 (  2244 PWs)   bands (ev):

    -5.2625  -1.5511   1.4171   1.6777

     highest occupied level (ev):     5.1666

!    total energy              =     -17.32670327 Ry
     estimated scf accuracy    <          2.1E-09 Ry

     The total energy is the sum of the following terms:
     one-electron contribution =       3.17297476 Ry
     hartree contribution      =       1.48771580 Ry
     xc contribution           =      -4.82021000 Ry
     ewald contribution        =     -17.16718384 Ry

     convergence has been achieved in  14 iterations

     Writing all to output data dir ./SCRATCH/gallium_arsenide.save/

     init_run     :      0.34s CPU      0.35s WALL (       1 calls)
     electrons    :      7.33s CPU      7.49s WALL (       1 calls)

     Called by init_run:
     wfcinit      :      0.30s CPU      0.29s WALL (       1 calls)
     potinit      :      0.02s CPU      0.01s WALL (       1 calls)
     hinit0       :      0.03s CPU      0.03s WALL (       1 calls)

     Called by electrons:
     c_bands      :      6.23s CPU      6.39s WALL (      15 calls)
     sum_band     :      0.98s CPU      1.01s WALL (      15 calls)
     v_of_rho     :      0.11s CPU      0.05s WALL (      15 calls)
     mix_rho      :      0.02s CPU      0.04s WALL (      15 calls)

     Called by c_bands:
     init_us_2    :      0.22s CPU      0.19s WALL (     899 calls)
     init_us_2:cp :      0.22s CPU      0.19s WALL (     899 calls)
     cegterg      :      6.09s CPU      6.19s WALL (     435 calls)

     Called by *egterg:
     cdiaghg      :      0.05s CPU      0.03s WALL (    1675 calls)
     h_psi        :      5.84s CPU      5.98s WALL (    1733 calls)
     g_psi        :      0.02s CPU      0.03s WALL (    1269 calls)

     Called by h_psi:
     h_psi:calbec :      0.11s CPU      0.12s WALL (    1733 calls)
     vloc_psi     :      5.58s CPU      5.74s WALL (    1733 calls)
     add_vuspsi   :      0.16s CPU      0.09s WALL (    1733 calls)

     General routines
     calbec       :      0.11s CPU      0.11s WALL (    1733 calls)
     fft          :      0.03s CPU      0.03s WALL (      45 calls)
     ffts         :      0.02s CPU      0.01s WALL (      15 calls)
     fftw         :      5.94s CPU      6.04s WALL (   13132 calls)


     PWSCF        :      7.69s CPU      7.87s WALL


   This run was terminated on:  12:27:30  25May2024            

=------------------------------------------------------------------------------=
   JOB DONE.
=------------------------------------------------------------------------------=
