
     Program PWSCF v.7.2 starts on 11Jun2024 at 12: 4:19 

     This program is part of the open-source Quantum ESPRESSO suite
     for quantum simulation of materials; please cite
         "P. Giannozzi et al., J. Phys.:Condens. Matter 21 395502 (2009);
         "P. Giannozzi et al., J. Phys.:Condens. Matter 29 465901 (2017);
         "P. Giannozzi et al., J. Chem. Phys. 152 154105 (2020);
          URL http://www.quantum-espresso.org", 
     in publications or presentations arising from this work. More details at
     http://www.quantum-espresso.org/quote

     Serial version
     8819 MiB available memory on the printing compute node when the environment starts

     Waiting for input...
     Reading input from standard input

     Current dimensions of program PWSCF are:
     Max number of different atomic species (ntypx) = 10
     Max number of k-points (npk) =  40000
     Max angular momentum in pseudopotentials (lmaxx) =  4
     file Ga.pbe-dn-rrkjus_psl.0.2.UPF: wavefunction(s)  4S 3D renormalized


     G-vector sticks info
     --------------------
     sticks:   dense  smooth     PW     G-vecs:    dense   smooth      PW
     Sum         703     511    163                12387     7799    1411

     Using Slab Decomposition



     bravais-lattice index     =            2
     lattice parameter (alat)  =      10.6827  a.u.
     unit-cell volume          =     304.7776 (a.u.)^3
     number of atoms/cell      =            2
     number of atomic types    =            2
     number of electrons       =        18.00
     number of Kohn-Sham states=            9
     kinetic-energy cutoff     =      33.0000  Ry
     charge density cutoff     =     180.0000  Ry
     scf convergence threshold =      1.0E-08
     mixing beta               =       0.7000
     number of iterations used =            8  plain     mixing
     Exchange-correlation= PBE
                           (   1   4   3   4   0   0   0)

     celldm(1)=  10.682700  celldm(2)=   0.000000  celldm(3)=   0.000000
     celldm(4)=   0.000000  celldm(5)=   0.000000  celldm(6)=   0.000000

     crystal axes: (cart. coord. in units of alat)
               a(1) = (  -0.500000   0.000000   0.500000 )  
               a(2) = (   0.000000   0.500000   0.500000 )  
               a(3) = (  -0.500000   0.500000   0.000000 )  

     reciprocal axes: (cart. coord. in units 2 pi/alat)
               b(1) = ( -1.000000 -1.000000  1.000000 )  
               b(2) = (  1.000000  1.000000  1.000000 )  
               b(3) = ( -1.000000  1.000000 -1.000000 )  


     PseudoPot. # 1 for Ga read from file:
     /home/paolo/project_labqsm/pseudopotentials/Ga.pbe-dn-rrkjus_psl.0.2.UPF
     MD5 check sum: ffdfce4fe0c152725d7fa40f12f9e9e5
     Pseudo is Ultrasoft + core correction, Zval = 13.0
     Generated using "atomic" code by A. Dal Corso  v.5.0.2 svn rev. 9415
     Using radial grid of 1205 points,  6 beta functions with: 
                l(1) =   0
                l(2) =   0
                l(3) =   1
                l(4) =   1
                l(5) =   2
                l(6) =   2
     Q(r) pseudized with 0 coefficients 


     PseudoPot. # 2 for As read from file:
     /home/paolo/project_labqsm/pseudopotentials/As.pbe-n-rrkjus_psl.0.2.UPF
     MD5 check sum: f98050c7212d27f7cb33035312670de9
     Pseudo is Ultrasoft + core correction, Zval =  5.0
     Generated using "atomic" code by A. Dal Corso  v.5.0.2 svn rev. 9415
     Using radial grid of 1209 points,  4 beta functions with: 
                l(1) =   0
                l(2) =   0
                l(3) =   1
                l(4) =   1
     Q(r) pseudized with 0 coefficients 


     atomic species   valence    mass     pseudopotential
        Ga            13.00    69.72300     Ga( 1.00)
        As             5.00    74.92160     As( 1.00)

     24 Sym. Ops. (no inversion) found



   Cartesian axes

     site n.     atom                  positions (alat units)
         1           Ga  tau(   1) = (   0.0000000   0.0000000   0.0000000  )
         2           As  tau(   2) = (   0.2500000   0.2500000   0.2500000  )

     number of k points=    29
                       cart. coord. in units 2pi/alat
        k(    1) = (   0.0000000   0.0000000   0.0000000), wk =   0.0039062
        k(    2) = (  -0.1250000   0.1250000  -0.1250000), wk =   0.0312500
        k(    3) = (  -0.2500000   0.2500000  -0.2500000), wk =   0.0312500
        k(    4) = (  -0.3750000   0.3750000  -0.3750000), wk =   0.0312500
        k(    5) = (   0.5000000  -0.5000000   0.5000000), wk =   0.0156250
        k(    6) = (   0.0000000   0.2500000   0.0000000), wk =   0.0234375
        k(    7) = (  -0.1250000   0.3750000  -0.1250000), wk =   0.0937500
        k(    8) = (  -0.2500000   0.5000000  -0.2500000), wk =   0.0937500
        k(    9) = (   0.6250000  -0.3750000   0.6250000), wk =   0.0937500
        k(   10) = (   0.5000000  -0.2500000   0.5000000), wk =   0.0937500
        k(   11) = (   0.3750000  -0.1250000   0.3750000), wk =   0.0937500
        k(   12) = (   0.2500000   0.0000000   0.2500000), wk =   0.0468750
        k(   13) = (   0.0000000   0.5000000   0.0000000), wk =   0.0234375
        k(   14) = (  -0.1250000   0.6250000  -0.1250000), wk =   0.0937500
        k(   15) = (   0.7500000  -0.2500000   0.7500000), wk =   0.0937500
        k(   16) = (   0.6250000  -0.1250000   0.6250000), wk =   0.0937500
        k(   17) = (   0.5000000   0.0000000   0.5000000), wk =   0.0468750
        k(   18) = (   0.0000000   0.7500000   0.0000000), wk =   0.0234375
        k(   19) = (   0.8750000  -0.1250000   0.8750000), wk =   0.0937500
        k(   20) = (   0.7500000   0.0000000   0.7500000), wk =   0.0468750
        k(   21) = (   0.0000000  -1.0000000   0.0000000), wk =   0.0117188
        k(   22) = (  -0.2500000   0.5000000   0.0000000), wk =   0.0937500
        k(   23) = (   0.6250000  -0.3750000   0.8750000), wk =   0.1875000
        k(   24) = (   0.5000000  -0.2500000   0.7500000), wk =   0.0937500
        k(   25) = (   0.7500000  -0.2500000   1.0000000), wk =   0.0937500
        k(   26) = (   0.6250000  -0.1250000   0.8750000), wk =   0.1875000
        k(   27) = (   0.5000000   0.0000000   0.7500000), wk =   0.0937500
        k(   28) = (  -0.2500000  -1.0000000   0.0000000), wk =   0.0468750
        k(   29) = (  -0.5000000  -1.0000000   0.0000000), wk =   0.0234375

     Dense  grid:    12387 G-vectors     FFT dimensions: (  36,  36,  36)

     Smooth grid:     7799 G-vectors     FFT dimensions: (  27,  27,  27)

     Estimated max dynamical RAM per process >      50.61 MB

     Check: negative core charge=   -0.000015

     Initial potential from superposition of free atoms

     starting charge      17.9968, renormalised to      18.0000
     Starting wfcs are   13 randomized atomic wfcs

     total cpu time spent up to now is        0.7 secs

     Self-consistent Calculation

     iteration #  1     ecut=    33.00 Ry     beta= 0.70
     Davidson diagonalization with overlap
     ethr =  1.00E-02,  avg # of iterations =  1.4

     Threshold (ethr) on eigenvalues was too large:
     Diagonalizing with lowered threshold

     Davidson diagonalization with overlap
     ethr =  2.93E-04,  avg # of iterations =  2.0

     total cpu time spent up to now is        1.6 secs

     total energy              =    -191.00865211 Ry
     estimated scf accuracy    <       0.05071051 Ry

     iteration #  2     ecut=    33.00 Ry     beta= 0.70
     Davidson diagonalization with overlap
     ethr =  2.82E-04,  avg # of iterations =  2.4

     total cpu time spent up to now is        2.1 secs

     total energy              =    -191.01877726 Ry
     estimated scf accuracy    <       0.00972591 Ry

     iteration #  3     ecut=    33.00 Ry     beta= 0.70
     Davidson diagonalization with overlap
     ethr =  5.40E-05,  avg # of iterations =  2.0

     total cpu time spent up to now is        2.7 secs

     total energy              =    -191.02059170 Ry
     estimated scf accuracy    <       0.00043309 Ry

     iteration #  4     ecut=    33.00 Ry     beta= 0.70
     Davidson diagonalization with overlap
     ethr =  2.41E-06,  avg # of iterations =  2.8

     total cpu time spent up to now is        3.3 secs

     total energy              =    -191.02067859 Ry
     estimated scf accuracy    <       0.00006610 Ry

     iteration #  5     ecut=    33.00 Ry     beta= 0.70
     Davidson diagonalization with overlap
     ethr =  3.67E-07,  avg # of iterations =  2.0

     total cpu time spent up to now is        3.8 secs

     total energy              =    -191.02067460 Ry
     estimated scf accuracy    <       0.00001402 Ry

     iteration #  6     ecut=    33.00 Ry     beta= 0.70
     Davidson diagonalization with overlap
     ethr =  7.79E-08,  avg # of iterations =  3.5

     total cpu time spent up to now is        4.4 secs

     total energy              =    -191.02067857 Ry
     estimated scf accuracy    <       0.00001251 Ry

     iteration #  7     ecut=    33.00 Ry     beta= 0.70
     Davidson diagonalization with overlap
     ethr =  6.95E-08,  avg # of iterations =  2.0

     total cpu time spent up to now is        4.9 secs

     total energy              =    -191.02068059 Ry
     estimated scf accuracy    <       0.00000007 Ry

     iteration #  8     ecut=    33.00 Ry     beta= 0.70
     Davidson diagonalization with overlap
     ethr =  4.01E-10,  avg # of iterations =  5.4

     total cpu time spent up to now is        5.7 secs

     total energy              =    -191.02068069 Ry
     estimated scf accuracy    <       0.00000008 Ry

     iteration #  9     ecut=    33.00 Ry     beta= 0.70
     Davidson diagonalization with overlap
     ethr =  4.01E-10,  avg # of iterations =  2.0

     total cpu time spent up to now is        6.2 secs

     End of self-consistent calculation

          k = 0.0000 0.0000 0.0000 (   941 PWs)   bands (ev):

    -8.0117  -8.0117  -8.0117  -7.9326  -7.9326  -5.9536   6.7811   6.7811
     6.7811

          k =-0.1250 0.1250-0.1250 (   959 PWs)   bands (ev):

    -8.0251  -8.0082  -8.0082  -7.9327  -7.9327  -5.7712   4.8165   6.5435
     6.5435

          k =-0.2500 0.2500-0.2500 (   962 PWs)   bands (ev):

    -8.0544  -8.0004  -8.0004  -7.9320  -7.9320  -5.2621   2.6361   6.1000
     6.1000

          k =-0.3750 0.3750-0.3750 (   972 PWs)   bands (ev):

    -8.0805  -7.9943  -7.9943  -7.9296  -7.9296  -4.5800   0.8857   5.7587
     5.7587

          k = 0.5000-0.5000 0.5000 (   978 PWs)   bands (ev):

    -8.0906  -7.9923  -7.9923  -7.9280  -7.9280  -4.1912   0.1319   5.6362
     5.6362

          k = 0.0000 0.2500 0.0000 (   950 PWs)   bands (ev):

    -8.0328  -8.0047  -8.0047  -7.9355  -7.9305  -5.7106   4.7899   6.1201
     6.1201

          k =-0.1250 0.3750-0.1250 (   962 PWs)   bands (ev):

    -8.0561  -7.9982  -7.9966  -7.9378  -7.9286  -5.3088   3.1454   5.6085
     5.6295

          k =-0.2500 0.5000-0.2500 (   988 PWs)   bands (ev):

    -8.0798  -7.9928  -7.9898  -7.9367  -7.9268  -4.6673   1.3868   5.0085
     5.3373

          k = 0.6250-0.3750 0.6250 (   976 PWs)   bands (ev):

    -8.0928  -7.9902  -7.9874  -7.9327  -7.9272  -4.1173   0.2877   4.5774
     5.3281

          k = 0.5000-0.2500 0.5000 (   975 PWs)   bands (ev):

    -8.0891  -7.9904  -7.9894  -7.9308  -7.9298  -4.2554   0.5425   4.4395
     5.5954

          k = 0.3750-0.1250 0.3750 (   968 PWs)   bands (ev):

    -8.0701  -7.9959  -7.9938  -7.9345  -7.9297  -4.8989   1.9354   4.6694
     6.0571

          k = 0.2500 0.0000 0.2500 (   963 PWs)   bands (ev):

    -8.0441  -8.0041  -8.0006  -7.9347  -7.9309  -5.4791   3.6396   5.4123
     6.5000

          k = 0.0000 0.5000 0.0000 (   982 PWs)   bands (ev):

    -8.0750  -7.9875  -7.9875  -7.9441  -7.9255  -5.0272   2.6875   5.0847
     5.0847

          k =-0.1250 0.6250-0.1250 (   981 PWs)   bands (ev):

    -8.0934  -7.9811  -7.9792  -7.9466  -7.9234  -4.4818   1.5083   4.3579
     4.7536

          k = 0.7500-0.2500 0.7500 (   977 PWs)   bands (ev):

    -8.1024  -7.9813  -7.9761  -7.9432  -7.9245  -3.9023   0.4992   3.5374
     4.7357

          k = 0.6250-0.1250 0.6250 (   977 PWs)   bands (ev):

    -8.0998  -7.9844  -7.9785  -7.9369  -7.9294  -3.8093   0.3707   3.1224
     5.0326

          k = 0.5000 0.0000 0.5000 (   975 PWs)   bands (ev):

    -8.0876  -7.9884  -7.9863  -7.9339  -7.9317  -4.3156   1.1286   3.4082
     5.5562

          k = 0.0000 0.7500 0.0000 (   982 PWs)   bands (ev):

    -8.1097  -7.9697  -7.9697  -7.9538  -7.9204  -4.0671   0.8624   4.3532
     4.3532

          k = 0.8750-0.1250 0.8750 (   979 PWs)   bands (ev):

    -8.1161  -7.9689  -7.9659  -7.9531  -7.9205  -3.6106   0.2242   3.6592
     4.2673

          k = 0.7500 0.0000 0.7500 (   977 PWs)   bands (ev):

    -8.1109  -7.9759  -7.9690  -7.9462  -7.9248  -3.4883   0.1389   2.9122
     4.5165

          k = 0.0000-1.0000 0.0000 (   982 PWs)   bands (ev):

    -8.1225  -7.9621  -7.9621  -7.9581  -7.9183  -3.4527  -0.0462   4.0965
     4.0965

          k =-0.2500 0.5000 0.0000 (   978 PWs)   bands (ev):

    -8.0767  -7.9911  -7.9882  -7.9404  -7.9267  -4.8331   2.0934   4.3761
     5.4765

          k = 0.6250-0.3750 0.8750 (   980 PWs)   bands (ev):

    -8.0929  -7.9875  -7.9815  -7.9389  -7.9269  -4.2018   0.8810   3.7209
     5.0393

          k = 0.5000-0.2500 0.7500 (   972 PWs)   bands (ev):

    -8.0989  -7.9868  -7.9790  -7.9364  -7.9282  -3.8490   0.2840   3.5469
     4.8369

          k = 0.7500-0.2500 1.0000 (   977 PWs)   bands (ev):

    -8.1055  -7.9774  -7.9717  -7.9480  -7.9229  -3.9529   0.7252   3.7305
     4.2968

          k = 0.6250-0.1250 0.8750 (   977 PWs)   bands (ev):

    -8.1080  -7.9800  -7.9692  -7.9441  -7.9259  -3.5560   0.2376   3.1096
     4.1190

          k = 0.5000 0.0000 0.7500 (   984 PWs)   bands (ev):

    -8.1028  -7.9840  -7.9728  -7.9400  -7.9286  -3.6964   0.4067   2.9662
     4.4615

          k =-0.2500-1.0000 0.0000 (   974 PWs)   bands (ev):

    -8.1163  -7.9710  -7.9652  -7.9507  -7.9219  -3.4234   0.0399   3.6323
     3.7241

          k =-0.5000-1.0000 0.0000 (   992 PWs)   bands (ev):

    -8.1093  -7.9807  -7.9665  -7.9434  -7.9274  -3.3935   0.1372   3.2402
     3.4249

     highest occupied level (ev):     6.7811

!    total energy              =    -191.02068070 Ry
     estimated scf accuracy    <          5.7E-09 Ry

     The total energy is the sum of the following terms:
     one-electron contribution =    -111.77418056 Ry
     hartree contribution      =      71.69564745 Ry
     xc contribution           =     -57.92119604 Ry
     ewald contribution        =     -93.02095154 Ry

     convergence has been achieved in   9 iterations

     Writing all to output data dir ./SCRATCH/gallium_arsenide.save/

     init_run     :      0.53s CPU      0.58s WALL (       1 calls)
     electrons    :      4.89s CPU      5.54s WALL (       1 calls)

     Called by init_run:
     wfcinit      :      0.20s CPU      0.20s WALL (       1 calls)
     potinit      :      0.02s CPU      0.02s WALL (       1 calls)
     hinit0       :      0.28s CPU      0.29s WALL (       1 calls)

     Called by electrons:
     c_bands      :      3.64s CPU      3.82s WALL (      10 calls)
     sum_band     :      0.91s CPU      1.13s WALL (      10 calls)
     v_of_rho     :      0.12s CPU      0.13s WALL (      10 calls)
     newd         :      0.22s CPU      0.51s WALL (      10 calls)
     mix_rho      :      0.00s CPU      0.01s WALL (      10 calls)

     Called by c_bands:
     init_us_2    :      0.11s CPU      0.12s WALL (     609 calls)
     init_us_2:cp :      0.11s CPU      0.12s WALL (     609 calls)
     cegterg      :      3.47s CPU      3.59s WALL (     290 calls)

     Called by *egterg:
     cdiaghg      :      0.11s CPU      0.06s WALL (    1004 calls)
     h_psi        :      2.94s CPU      3.07s WALL (    1062 calls)
     s_psi        :      0.17s CPU      0.15s WALL (    1062 calls)
     g_psi        :      0.00s CPU      0.01s WALL (     743 calls)

     Called by h_psi:
     h_psi:calbec :      0.23s CPU      0.20s WALL (    1062 calls)
     vloc_psi     :      2.56s CPU      2.70s WALL (    1062 calls)
     add_vuspsi   :      0.12s CPU      0.15s WALL (    1062 calls)

     General routines
     calbec       :      0.33s CPU      0.26s WALL (    1352 calls)
     fft          :      0.05s CPU      0.06s WALL (     129 calls)
     ffts         :      0.00s CPU      0.00s WALL (      20 calls)
     fftw         :      2.70s CPU      2.81s WALL (   17730 calls)
     interpolate  :      0.02s CPU      0.01s WALL (      10 calls)


     PWSCF        :      5.52s CPU      6.23s WALL


   This run was terminated on:  12: 4:25  11Jun2024            

=------------------------------------------------------------------------------=
   JOB DONE.
=------------------------------------------------------------------------------=
